default_name
   272
  20.3970000   1.2230000 -30.5550000  19.7810000   1.9060000 -31.0400000
  21.2840000   1.7320000 -30.3650000  20.6620000   0.5370000 -31.2910000
  19.7470000   0.4900000 -29.4390000  18.8930000   0.1020000 -29.9740000
  20.9420000  -0.3650000 -28.8920000  21.6600000  -0.8460000 -29.5910000
  21.5870000   0.2390000 -28.2180000  20.3430000  -1.5120000 -28.0860000
  20.8820000  -1.7840000 -26.9730000  19.4810000  -2.2320000 -28.5770000
  19.1450000   1.4370000 -28.3370000  19.1910000   2.6560000 -28.4770000
  18.6500000   0.9220000 -27.1450000  18.6000000  -0.0570000 -26.9630000
  17.9590000   1.7630000 -26.1430000  17.7230000   2.6620000 -26.6930000
  16.6860000   1.1190000 -25.6010000  16.9490000   0.0890000 -25.2800000
  16.3160000   1.6330000 -24.6880000  15.8000000   1.1350000 -26.2720000
  18.9440000   2.2190000 -25.0120000  19.6260000   1.2920000 -24.4470000
  19.1970000   3.4800000 -24.7580000  18.8480000   4.2220000 -25.3250000
  20.3220000   3.8500000 -23.8240000  20.8890000   2.9710000 -23.5560000
  21.2700000   4.8590000 -24.4960000  20.8120000   5.8710000 -24.5070000
  22.1420000   4.9540000 -23.8150000  21.7080000   4.3220000 -25.8020000
  22.5870000   3.2080000 -25.8590000  23.0770000   2.7890000 -24.9920000
  22.9630000   2.7900000 -27.1430000  23.6080000   1.9240000 -27.1830000
  22.4000000   3.3000000 -28.3190000  22.7430000   2.8360000 -29.6030000
  22.6310000   3.5420000 -30.2430000  21.5880000   4.4190000 -28.2250000
  21.1950000   4.9390000 -29.0860000  21.1950000   4.9250000 -26.9910000
  20.4760000   5.7290000 -26.9310000  19.8070000   4.4080000 -22.4810000
  20.5840000   4.9490000 -21.6830000  18.4880000   4.4110000 -22.2260000
  17.7960000   4.0460000 -22.8440000  18.0280000   4.8850000 -21.0030000
  18.4300000   5.8330000 -20.6760000  16.5030000   5.0930000 -21.1840000
  16.3660000   5.7900000 -22.0380000  15.9320000   4.1870000 -21.4790000
  16.0940000   5.6290000 -20.3010000  18.1830000   3.9940000 -19.8260000
  17.5990000   2.8990000 -19.7110000  18.9890000   4.4990000 -18.8380000
  19.4620000   5.3680000 -18.9610000  19.0960000   3.9550000 -17.4820000
  18.8900000   2.8950000 -17.4880000  20.3860000   4.2920000 -16.7830000
  21.1830000   4.0140000 -17.5060000  20.4060000   5.3800000 -16.5590000
  20.6320000   3.5770000 -15.4310000  19.7430000   3.5420000 -14.7670000
  20.9070000   2.5340000 -15.6950000  21.7720000   4.1430000 -14.6270000
  22.9540000   4.1660000 -15.0070000  21.4590000   4.8180000 -13.4400000
  22.2060000   5.1700000 -12.8760000  20.5080000   5.0390000 -13.2270000
  17.9440000   4.3880000 -16.5790000  17.3110000   3.5910000 -15.8630000
  17.5990000   5.6620000 -16.6420000  18.2010000   6.2140000 -17.2140000
  16.5930000   6.3320000 -15.8970000  16.7770000   6.0150000 -14.8810000
  16.8910000   7.8470000 -15.9090000  16.6240000   8.1730000 -16.9370000
  16.1330000   8.3000000 -15.2350000  18.2590000   8.4380000 -15.6020000
  19.0120000   8.1330000 -14.5520000  18.6410000   7.5580000 -13.7160000
  20.2840000   8.5890000 -14.7570000  21.0200000   8.3790000 -14.1510000
  20.3960000   9.2220000 -15.9430000  21.4020000   9.9210000 -16.5530000
  22.4100000   9.9900000 -16.1720000  21.1520000  10.4710000 -17.8200000
  21.9830000  10.9150000 -18.3480000  19.9230000  10.3710000 -18.4420000
  19.7810000  10.8680000 -19.3910000  18.8280000   9.7570000 -17.8000000
  17.8700000   9.5520000 -18.2530000  19.1330000   9.1540000 -16.5370000
  15.1670000   6.0170000 -16.3510000  14.9740000   5.7170000 -17.5290000
  14.2110000   5.9890000 -15.4640000  14.4200000   6.2830000 -14.5340000
  12.8910000   5.4070000 -15.7150000  12.9420000   4.8120000 -16.6150000
  12.5290000   4.4470000 -14.5790000  13.1850000   3.5740000 -14.7850000
  12.7810000   4.9340000 -13.6130000  11.1240000   3.7380000 -14.5610000
  10.3490000   4.5140000 -14.3830000  10.9830000   2.8940000 -15.7900000
  10.9520000   3.5870000 -16.6580000  11.8500000   2.2070000 -15.8850000
  10.0430000   2.3030000 -15.8240000  11.0000000   2.7650000 -13.3970000
  10.0930000   2.1350000 -13.5190000  11.8580000   2.0690000 -13.5210000
  10.9170000   3.1760000 -12.3690000  11.8910000   6.4960000 -15.9240000
  11.5610000   7.1670000 -14.9700000  11.4090000   6.6440000 -17.1260000
  11.6000000   6.0850000 -17.9290000  10.5230000   7.7450000 -17.5490000
  10.7240000   8.5220000 -16.8260000  10.9330000   8.2580000 -18.9220000
  11.9960000   8.5790000 -18.9560000  10.7290000   7.5620000 -19.7640000
  10.3560000   9.1890000 -19.1100000   9.0710000   7.2100000 -17.3580000
   8.2300000   8.0460000 -17.0660000   8.8140000   5.8960000 -17.3410000
   9.6560000   5.4320000 -17.6030000   7.5380000   5.2180000 -17.1870000
   6.7490000   5.7060000 -17.7400000   7.5960000   3.7360000 -17.5890000
   8.0630000   3.0410000 -16.8590000   6.5310000   3.4220000 -17.5380000
   8.1200000   3.5550000 -18.9910000   7.7690000   4.2060000 -20.0290000
   9.0220000   2.5970000 -19.0650000   7.0280000   5.3020000 -15.7810000
   5.9920000   4.7210000 -15.4390000   7.7180000   5.9650000 -14.9010000
   8.6220000   6.3120000 -15.1370000   7.3650000   6.0320000 -13.5060000
   8.1270000   6.6020000 -12.9940000   6.3650000   6.4360000 -13.4570000
   7.4860000   4.7580000 -12.6390000   7.8390000   3.6460000 -13.0750000
   7.2690000   4.9670000 -11.3310000   7.0550000   5.8970000 -11.0430000
   7.3630000   3.9330000 -10.3670000   6.6090000   4.1220000  -9.6170000
   7.2300000   2.9970000 -10.8890000   8.7750000   3.9820000  -9.7470000
   9.6650000   4.6340000 -10.2460000   9.0440000   3.4860000  -8.6040000
   8.0700000   2.7740000  -7.7780000   7.5580000   1.9130000  -8.2580000
   7.3090000   3.5200000  -7.4630000   8.9100000   2.2630000  -6.6360000
   9.4650000   1.3380000  -6.9060000   8.3770000   2.0500000  -5.6850000
   9.8920000   3.3940000  -6.4080000  10.7410000   2.9100000  -5.8790000
   9.5940000   4.3130000  -5.8590000  10.2520000   3.8210000  -7.8810000
  10.4400000   4.8760000  -8.0200000  11.5640000   3.1610000  -8.4220000
  11.5690000   1.9900000  -8.8260000  12.6810000   3.9660000  -8.4480000
  12.6100000   4.9210000  -8.1690000  13.9930000   3.6790000  -8.9630000
  14.5370000   2.8890000  -8.4660000  13.9390000   3.3260000 -10.4850000
  13.3230000   2.4340000 -10.7280000  13.4280000   4.1720000 -10.9920000
  15.2570000   3.1580000 -11.0030000  15.0140000   3.1060000 -11.9300000
  14.7560000   5.0300000  -8.7480000  14.0670000   6.0700000  -8.7550000
  16.0830000   5.0080000  -8.4880000  16.5810000   4.1450000  -8.5240000
  16.8210000   6.1720000  -8.1590000  16.2860000   6.5970000  -7.3230000
  18.1900000   5.7590000  -7.5880000  18.0780000   4.9680000  -6.8150000
  18.8730000   5.4040000  -8.3890000  18.9570000   6.8350000  -6.9930000
  19.6140000   6.3920000  -6.4500000  17.0240000   7.1810000  -9.2960000
  17.5630000   6.7750000 -10.3510000  16.6060000   8.4240000  -9.1520000
  16.2210000   8.8040000  -8.3150000  16.8750000   9.4000000 -10.1550000
  16.7110000   8.9820000 -11.1370000  16.2380000  10.2550000  -9.9820000
  18.2750000   9.8960000 -10.1100000  19.1080000   9.3850000  -9.4050000
  18.5850000  11.0010000 -10.8110000  17.8410000  11.4270000 -11.3200000
  19.8560000  11.7830000 -10.8130000  20.7030000  11.1160000 -10.7470000
  19.9410000  12.7120000 -12.0420000  18.9180000  13.0940000 -12.2490000
  20.6150000  13.5200000 -11.6870000  20.4220000  12.1000000 -13.3660000
  21.5170000  11.9230000 -13.3040000  19.9160000  11.1630000 -13.6830000
  20.3440000  13.0470000 -14.5610000  20.7780000  14.0610000 -14.4270000
  20.8390000  12.4650000 -15.3660000  18.8900000  13.2090000 -14.9240000
  18.3080000  13.1200000 -14.1160000  18.4600000  13.3970000 -16.1780000
  19.2580000  13.7200000 -17.1900000  20.2020000  14.0080000 -17.0250000
  18.9180000  13.6950000 -18.1300000  17.1230000  13.3280000 -16.4200000
  16.4870000  13.0970000 -15.6830000  16.8230000  13.2810000 -17.3720000
  19.8070000  12.5030000  -9.4560000  18.7120000  12.7560000  -8.9620000
  20.8680000  12.7480000  -8.7590000  22.1860000  12.4720000  -9.1310000
  22.3810000  12.6860000 -10.2040000  22.4920000  11.4180000  -8.9600000
  23.1100000  13.5150000  -8.4450000  23.1820000  14.4020000  -9.1110000
  24.1130000  13.1090000  -8.1950000  22.2760000  13.8230000  -7.1570000
  22.3350000  14.8630000  -6.7710000  22.6470000  13.0990000  -6.4010000
  20.8300000  13.6780000  -7.6450000  20.2860000  13.2500000  -6.8160000
  20.3070000  15.0530000  -8.0720000  20.4570000  15.4950000  -9.2460000
  19.7440000  15.8580000  -7.1330000  19.0920000  15.3320000  -5.8830000
  19.9650000  15.1290000  -5.2260000  18.5750000  14.3580000  -6.0170000
  18.1960000  16.3890000  -5.3830000  18.3390000  16.6140000  -4.3040000
  17.1900000  16.0390000  -5.6960000  18.7010000  17.6570000  -6.0980000
  19.5090000  17.9910000  -5.4140000  17.8360000  18.3550000  -6.1020000
  19.4340000  17.2330000  -7.3830000  18.8430000  17.1920000  -8.2860000
  20.6910000  18.0880000  -7.6510000  21.8290000  17.5970000  -7.4080000
  20.5660000  19.3140000  -8.0650000  19.5030000  19.8500000  -8.9040000
  18.7540000  20.2240000  -8.1740000  19.0740000  19.1930000  -9.6900000
  20.1530000  21.0730000  -9.5240000  19.3200000  21.7260000  -9.8610000
  20.7080000  20.7450000 -10.4290000  21.0500000  21.6200000  -8.4270000
  20.4720000  22.2690000  -7.7340000  21.7520000  22.3660000  -8.8550000
  21.6550000  20.3260000  -7.8430000  22.5760000  19.9560000  -8.2690000
  22.0730000  20.5310000  -6.3850000  21.3370000  20.1810000  -5.4120000
  23.2440000  21.0560000  -6.1200000  23.7990000  21.3830000  -6.8810000
  23.7940000  21.3250000  -4.7990000  22.9820000  21.1710000  -4.1040000
  25.0080000  20.4460000  -4.5300000  25.2380000  20.6480000  -3.4620000
  24.7580000  19.3670000  -4.6060000  26.0240000  20.6040000  -5.5000000
  26.4650000  21.4190000  -5.2500000  24.2740000  22.7770000  -4.5190000
  24.6580000  23.4940000  -5.4530000  24.2850000  23.2180000  -3.3580000
