%VERSION  VERSION_STAMP = V0001.000  DATE = 06/11/25  23:25:48                  
%FLAG TITLE                                                                     
%FORMAT(20a4)                                                                   
default_name                                                                    
%FLAG POINTERS                                                                  
%FORMAT(10I8)                                                                   
     272      12     128     150     295     207     614     610       0       0
    1509      20     150     207     610      49     109     106      26       0
       0       0       0       0       0       0       0       0      24       0
       0
%FLAG ATOM_NAME                                                                 
%FORMAT(20a4)                                                                   
N   H1  H2  H3  CA  HA  CB  HB2 HB3 CG  OD1 OD2 C   O   N   H   CA  HA  CB  HB1 
HB2 HB3 C   O   N   H   CA  HA  CB  HB2 HB3 CG  CD1 HD1 CE1 HE1 CZ  OH  HH  CE2 
HE2 CD2 HD2 C   O   N   H   CA  HA  CB  HB1 HB2 HB3 C   O   N   H   CA  HA  CB  
HB2 HB3 CG  HG2 HG3 CD  OE1 NE2 HE21HE22C   O   N   H   CA  HA  CB  HB2 HB3 CG  
CD1 HD1 NE1 HE1 CE2 CZ2 HZ2 CH2 HH2 CZ3 HZ3 CE3 HE3 CD2 C   O   N   H   CA  HA  
CB  HB2 HB3 CG  HG  CD1 HD11HD12HD13CD2 HD21HD22HD23C   O   N   H   CA  HA  CB  
HB1 HB2 HB3 C   O   N   H   CA  HA  CB  HB2 HB3 CG  OD1 OD2 C   O   N   H   CA  
HA2 HA3 C   O   N   H   CA  HA2 HA3 C   O   N   CD  HD2 HD3 CG  HG2 HG3 CB  HB2 
HB3 CA  HA  C   O   N   H   CA  HA  CB  HB2 HB3 OG  HG  C   O   N   H   CA  HA  
CB  HB2 HB3 OG  HG  C   O   N   H   CA  HA2 HA3 C   O   N   H   CA  HA  CB  HB2 
HB3 CG  HG2 HG3 CD  HD2 HD3 NE  HE  CZ  NH1 HH11HH12NH2 HH21HH22C   O   N   CD  
HD2 HD3 CG  HG2 HG3 CB  HB2 HB3 CA  HA  C   O   N   CD  HD2 HD3 CG  HG2 HG3 CB  
HB2 HB3 CA  HA  C   O   N   CD  HD2 HD3 CG  HG2 HG3 CB  HB2 HB3 CA  HA  C   O   
N   H   CA  HA  CB  HB2 HB3 OG  HG  C   O   OXT 
%FLAG CHARGE                                                                    
%FORMAT(5E16.8)                                                                 
  1.42498386E+00  4.00890600E+00  4.00890600E+00  4.00890600E+00  5.32091160E-01
  2.07916443E+00 -4.28224050E-01 -3.07956870E-01 -3.07956870E-01  1.49313526E+01
 -1.47309073E+01 -1.47309073E+01  1.02427548E+01 -1.07311125E+01 -7.57501011E+00
  4.95464337E+00  6.14091510E-01  1.49969529E+00 -3.32556975E+00  1.09880469E+00
  1.09880469E+00  1.09880469E+00  1.08841798E+01 -1.03484442E+01 -7.57501011E+00
  4.95464337E+00 -2.55112200E-02  1.59627348E+00 -2.76978960E-01  5.37557850E-01
  5.37557850E-01 -2.00445300E-02 -3.47317038E+00  3.09596877E+00 -4.26584043E+00
  3.01761288E+00  5.87851398E+00 -1.01662212E+01  7.27434216E+00 -4.26584043E+00
  3.01761288E+00 -3.47317038E+00  3.09596877E+00  1.08841798E+01 -1.03484442E+01
 -7.57501011E+00  4.95464337E+00  6.14091510E-01  1.49969529E+00 -3.32556975E+00
  1.09880469E+00  1.09880469E+00  1.09880469E+00  1.08841798E+01 -1.03484442E+01
 -7.57501011E+00  4.95464337E+00 -5.64891300E-02  1.54889550E+00 -6.56002800E-02
  3.11601330E-01  3.11601330E-01 -1.17533835E+00  6.41424960E-01  6.41424960E-01
  1.26663207E+01 -1.10900918E+01 -1.71417176E+01  7.74629973E+00  7.74629973E+00
  1.08841798E+01 -1.03484442E+01 -7.57501011E+00  4.95464337E+00 -5.01113250E-01
  2.04636429E+00 -9.11115000E-02  6.17735970E-01  6.17735970E-01 -2.57845545E+00
 -2.98481274E+00  3.75743826E+00 -6.22838214E+00  6.21744876E+00  2.51467740E+00
 -4.73962023E+00  2.86454556E+00 -2.06640882E+00  2.58209991E+00 -3.59343756E+00
  2.63676681E+00 -4.34966301E+00  3.09779100E+00  2.26503189E+00  1.08841798E+01
 -1.03484442E+01 -7.57501011E+00  4.95464337E+00 -9.43915140E-01  1.68009606E+00
 -2.00809746E+00  8.32759110E-01  8.32759110E-01  6.43429413E+00 -6.57825030E-01
 -7.50940983E+00  1.82223000E+00  1.82223000E+00  1.82223000E+00 -7.50940983E+00
  1.82223000E+00  1.82223000E+00  1.82223000E+00  1.08841798E+01 -1.03484442E+01
 -7.57501011E+00  4.95464337E+00  6.14091510E-01  1.49969529E+00 -3.32556975E+00
  1.09880469E+00  1.09880469E+00  1.09880469E+00  1.08841798E+01 -1.03484442E+01
 -9.40817349E+00  5.35006728E+00  6.94269630E-01  1.60356240E+00 -5.52135690E-01
 -2.22312060E-01 -2.22312060E-01  1.45669066E+01 -1.46033512E+01 -1.46033512E+01
  9.77808618E+00 -1.06035564E+01 -7.57501011E+00  4.95464337E+00 -4.59201960E-01
  1.27191654E+00  1.27191654E+00  1.08841798E+01 -1.03484442E+01 -7.57501011E+00
  4.95464337E+00 -4.59201960E-01  1.27191654E+00  1.27191654E+00  1.08841798E+01
 -1.03484442E+01 -4.64304204E+00  3.49868160E-01  7.12491930E-01  7.12491930E-01
  3.44401470E-01  3.88134990E-01  3.88134990E-01 -1.27556100E-01  4.61024190E-01
  4.61024190E-01 -4.84713180E-01  1.16804943E+00  1.07438681E+01 -1.04741780E+01
 -7.57501011E+00  4.95464337E+00 -4.53735270E-01  1.53613989E+00  3.85766091E+00
  6.41424960E-01  6.41424960E-01 -1.19283176E+01  7.79003325E+00  1.08841798E+01
 -1.03484442E+01 -7.57501011E+00  4.95464337E+00 -4.53735270E-01  1.53613989E+00
  3.85766091E+00  6.41424960E-01  6.41424960E-01 -1.19283176E+01  7.79003325E+00
  1.08841798E+01 -1.03484442E+01 -7.57501011E+00  4.95464337E+00 -4.59201960E-01
  1.27191654E+00  1.27191654E+00  1.08841798E+01 -1.03484442E+01 -6.33953817E+00
  5.00566581E+00 -4.80522051E+00  2.84267880E+00 -1.27556100E-02  5.95869210E-01
  5.95869210E-01  7.10669700E-01  5.19335550E-01  5.19335550E-01  8.85603780E-01
  1.25187201E+00  1.25187201E+00 -9.64870785E+00  6.29762688E+00  1.47163295E+01
 -1.57203782E+01  8.15994594E+00  8.15994594E+00 -1.57203782E+01  8.15994594E+00
  8.15994594E+00  1.33769904E+01 -1.07402236E+01 -4.64304204E+00  3.49868160E-01
  7.12491930E-01  7.12491930E-01  3.44401470E-01  3.88134990E-01  3.88134990E-01
 -1.27556100E-01  4.61024190E-01  4.61024190E-01 -4.84713180E-01  1.16804943E+00
  1.07438681E+01 -1.04741780E+01 -4.64304204E+00  3.49868160E-01  7.12491930E-01
  7.12491930E-01  3.44401470E-01  3.88134990E-01  3.88134990E-01 -1.27556100E-01
  4.61024190E-01  4.61024190E-01 -4.84713180E-01  1.16804943E+00  1.07438681E+01
 -1.04741780E+01 -4.64304204E+00  3.49868160E-01  7.12491930E-01  7.12491930E-01
  3.44401470E-01  3.88134990E-01  3.88134990E-01 -1.27556100E-01  4.61024190E-01
  4.61024190E-01 -4.84713180E-01  1.16804943E+00  1.07438681E+01 -1.04741780E+01
 -6.96274083E+00  4.88539863E+00 -4.96011006E+00  2.37618792E+00  2.04636429E+00
  1.48147299E+00  1.48147299E+00 -1.18700062E+01  8.15265702E+00  1.47837520E+01
 -1.48183744E+01 -1.48183744E+01
%FLAG ATOMIC_NUMBER                                                             
%FORMAT(10I8)                                                                   
       7       1       1       1       6       1       6       1       1       6
       8       8       6       8       7       1       6       1       6       1
       1       1       6       8       7       1       6       1       6       1
       1       6       6       1       6       1       6       8       1       6
       1       6       1       6       8       7       1       6       1       6
       1       1       1       6       8       7       1       6       1       6
       1       1       6       1       1       6       8       7       1       1
       6       8       7       1       6       1       6       1       1       6
       6       1       7       1       6       6       1       6       1       6
       1       6       1       6       6       8       7       1       6       1
       6       1       1       6       1       6       1       1       1       6
       1       1       1       6       8       7       1       6       1       6
       1       1       1       6       8       7       1       6       1       6
       1       1       6       8       8       6       8       7       1       6
       1       1       6       8       7       1       6       1       1       6
       8       7       6       1       1       6       1       1       6       1
       1       6       1       6       8       7       1       6       1       6
       1       1       8       1       6       8       7       1       6       1
       6       1       1       8       1       6       8       7       1       6
       1       1       6       8       7       1       6       1       6       1
       1       6       1       1       6       1       1       7       1       6
       7       1       1       7       1       1       6       8       7       6
       1       1       6       1       1       6       1       1       6       1
       6       8       7       6       1       1       6       1       1       6
       1       1       6       1       6       8       7       6       1       1
       6       1       1       6       1       1       6       1       6       8
       7       1       6       1       6       1       1       8       1       6
       8       8
%FLAG MASS                                                                      
%FORMAT(5E16.8)                                                                 
  1.40100000E+01  1.00800000E+00  1.00800000E+00  1.00800000E+00  1.20100000E+01
  1.00800000E+00  1.20100000E+01  1.00800000E+00  1.00800000E+00  1.20100000E+01
  1.60000000E+01  1.60000000E+01  1.20100000E+01  1.60000000E+01  1.40100000E+01
  1.00800000E+00  1.20100000E+01  1.00800000E+00  1.20100000E+01  1.00800000E+00
  1.00800000E+00  1.00800000E+00  1.20100000E+01  1.60000000E+01  1.40100000E+01
  1.00800000E+00  1.20100000E+01  1.00800000E+00  1.20100000E+01  1.00800000E+00
  1.00800000E+00  1.20100000E+01  1.20100000E+01  1.00800000E+00  1.20100000E+01
  1.00800000E+00  1.20100000E+01  1.60000000E+01  1.00800000E+00  1.20100000E+01
  1.00800000E+00  1.20100000E+01  1.00800000E+00  1.20100000E+01  1.60000000E+01
  1.40100000E+01  1.00800000E+00  1.20100000E+01  1.00800000E+00  1.20100000E+01
  1.00800000E+00  1.00800000E+00  1.00800000E+00  1.20100000E+01  1.60000000E+01
  1.40100000E+01  1.00800000E+00  1.20100000E+01  1.00800000E+00  1.20100000E+01
  1.00800000E+00  1.00800000E+00  1.20100000E+01  1.00800000E+00  1.00800000E+00
  1.20100000E+01  1.60000000E+01  1.40100000E+01  1.00800000E+00  1.00800000E+00
  1.20100000E+01  1.60000000E+01  1.40100000E+01  1.00800000E+00  1.20100000E+01
  1.00800000E+00  1.20100000E+01  1.00800000E+00  1.00800000E+00  1.20100000E+01
  1.20100000E+01  1.00800000E+00  1.40100000E+01  1.00800000E+00  1.20100000E+01
  1.20100000E+01  1.00800000E+00  1.20100000E+01  1.00800000E+00  1.20100000E+01
  1.00800000E+00  1.20100000E+01  1.00800000E+00  1.20100000E+01  1.20100000E+01
  1.60000000E+01  1.40100000E+01  1.00800000E+00  1.20100000E+01  1.00800000E+00
  1.20100000E+01  1.00800000E+00  1.00800000E+00  1.20100000E+01  1.00800000E+00
  1.20100000E+01  1.00800000E+00  1.00800000E+00  1.00800000E+00  1.20100000E+01
  1.00800000E+00  1.00800000E+00  1.00800000E+00  1.20100000E+01  1.60000000E+01
  1.40100000E+01  1.00800000E+00  1.20100000E+01  1.00800000E+00  1.20100000E+01
  1.00800000E+00  1.00800000E+00  1.00800000E+00  1.20100000E+01  1.60000000E+01
  1.40100000E+01  1.00800000E+00  1.20100000E+01  1.00800000E+00  1.20100000E+01
  1.00800000E+00  1.00800000E+00  1.20100000E+01  1.60000000E+01  1.60000000E+01
  1.20100000E+01  1.60000000E+01  1.40100000E+01  1.00800000E+00  1.20100000E+01
  1.00800000E+00  1.00800000E+00  1.20100000E+01  1.60000000E+01  1.40100000E+01
  1.00800000E+00  1.20100000E+01  1.00800000E+00  1.00800000E+00  1.20100000E+01
  1.60000000E+01  1.40100000E+01  1.20100000E+01  1.00800000E+00  1.00800000E+00
  1.20100000E+01  1.00800000E+00  1.00800000E+00  1.20100000E+01  1.00800000E+00
  1.00800000E+00  1.20100000E+01  1.00800000E+00  1.20100000E+01  1.60000000E+01
  1.40100000E+01  1.00800000E+00  1.20100000E+01  1.00800000E+00  1.20100000E+01
  1.00800000E+00  1.00800000E+00  1.60000000E+01  1.00800000E+00  1.20100000E+01
  1.60000000E+01  1.40100000E+01  1.00800000E+00  1.20100000E+01  1.00800000E+00
  1.20100000E+01  1.00800000E+00  1.00800000E+00  1.60000000E+01  1.00800000E+00
  1.20100000E+01  1.60000000E+01  1.40100000E+01  1.00800000E+00  1.20100000E+01
  1.00800000E+00  1.00800000E+00  1.20100000E+01  1.60000000E+01  1.40100000E+01
  1.00800000E+00  1.20100000E+01  1.00800000E+00  1.20100000E+01  1.00800000E+00
  1.00800000E+00  1.20100000E+01  1.00800000E+00  1.00800000E+00  1.20100000E+01
  1.00800000E+00  1.00800000E+00  1.40100000E+01  1.00800000E+00  1.20100000E+01
  1.40100000E+01  1.00800000E+00  1.00800000E+00  1.40100000E+01  1.00800000E+00
  1.00800000E+00  1.20100000E+01  1.60000000E+01  1.40100000E+01  1.20100000E+01
  1.00800000E+00  1.00800000E+00  1.20100000E+01  1.00800000E+00  1.00800000E+00
  1.20100000E+01  1.00800000E+00  1.00800000E+00  1.20100000E+01  1.00800000E+00
  1.20100000E+01  1.60000000E+01  1.40100000E+01  1.20100000E+01  1.00800000E+00
  1.00800000E+00  1.20100000E+01  1.00800000E+00  1.00800000E+00  1.20100000E+01
  1.00800000E+00  1.00800000E+00  1.20100000E+01  1.00800000E+00  1.20100000E+01
  1.60000000E+01  1.40100000E+01  1.20100000E+01  1.00800000E+00  1.00800000E+00
  1.20100000E+01  1.00800000E+00  1.00800000E+00  1.20100000E+01  1.00800000E+00
  1.00800000E+00  1.20100000E+01  1.00800000E+00  1.20100000E+01  1.60000000E+01
  1.40100000E+01  1.00800000E+00  1.20100000E+01  1.00800000E+00  1.20100000E+01
  1.00800000E+00  1.00800000E+00  1.60000000E+01  1.00800000E+00  1.20100000E+01
  1.60000000E+01  1.60000000E+01
%FLAG ATOM_TYPE_INDEX                                                           
%FORMAT(10I8)                                                                   
       1       2       2       2       3       4       3       5       5       6
       7       7       6       7       1       2       3       8       3       5
       5       5       6       7       1       2       3       8       3       5
       5       6       6       9       6       9       6      10      11       6
       9       6       9       6       7       1       2       3       8       3
       5       5       5       6       7       1       2       3       8       3
       5       5       3       5       5       6       7       1       2       2
       6       7       1       2       3       8       3       5       5       6
       6      12       1       2       6       6       9       6       9       6
       9       6       9       6       6       7       1       2       3       8
       3       5       5       3       5       3       5       5       5       3
       5       5       5       6       7       1       2       3       8       3
       5       5       5       6       7       1       2       3       8       3
       5       5       6       7       7       6       7       1       2       3
       8       8       6       7       1       2       3       8       8       6
       7       1       3       8       8       3       5       5       3       5
       5       3       8       6       7       1       2       3       8       3
       8       8      10      11       6       7       1       2       3       8
       3       8       8      10      11       6       7       1       2       3
       8       8       6       7       1       2       3       8       3       5
       5       3       5       5       3       8       8       1       2       6
       1       2       2       1       2       2       6       7       1       3
       8       8       3       5       5       3       5       5       3       8
       6       7       1       3       8       8       3       5       5       3
       5       5       3       8       6       7       1       3       8       8
       3       5       5       3       5       5       3       8       6       7
       1       2       3       8       3       8       8      10      11       6
       7       7
%FLAG NUMBER_EXCLUDED_ATOMS                                                     
%FORMAT(10I8)                                                                   
      12       6       5       4      12       7       8       5       4       3
       1       1       7       3      10       4      10       7       6       3
       2       1       7       3      10       4      12       7      12       5
       4      10       8       4       7       3       6       4       1       3
       2       1       1       7       3      10       4      10       7       6
       3       2       1       7       3      10       4      13       7      11
       6       5       8       4       3       4       3       2       1       1
       7       3      10       4      12       7      12       5       4      11
       7       4       7       3       8       7       4       6       3       4
       3       2       1       1       7       3      10       4      13       7
      15       6       5      10       8       7       3       2       1       3
       2       1       1       7       3      10       4      10       7       6
       3       2       1       7       3      10       4      12       7       8
       5       4       3       1       1       7       3       7       4       7
       4       3       7       3       7       4       7       4       3      10
       3      14      11       6       5       8       5       4       7       4
       3       6       3       7       3      10       4      11       7       7
       4       3       2       1       7       3      10       4      11       7
       7       4       3       2       1       7       3       7       4       7
       4       3       7       3      10       4      13       7      12       6
       5       9       5       4       7       4       3       8       3       6
       5       2       1       2       1       1      10       3      14      11
       6       5       8       5       4       7       4       3       6       3
      10       3      14      11       6       5       8       5       4       7
       4       3       6       3      10       3      14      11       6       5
       8       5       4       7       4       3       6       3       7       3
      10       4       9       7       7       4       3       2       1       2
       1       1
%FLAG NONBONDED_PARM_INDEX                                                      
%FORMAT(10I8)                                                                   
       1       2       4       7      11      16      22      29      37      46
      56      67       2       3       5       8      12      17      23      30
      38      47      57      68       4       5       6       9      13      18
      24      31      39      48      58      69       7       8       9      10
      14      19      25      32      40      49      59      70      11      12
      13      14      15      20      26      33      41      50      60      71
      16      17      18      19      20      21      27      34      42      51
      61      72      22      23      24      25      26      27      28      35
      43      52      62      73      29      30      31      32      33      34
      35      36      44      53      63      74      37      38      39      40
      41      42      43      44      45      54      64      75      46      47
      48      49      50      51      52      53      54      55      65      76
      56      57      58      59      60      61      62      63      64      65
      66      77      67      68      69      70      71      72      73      74
      75      76      77      78
%FLAG RESIDUE_LABEL                                                             
%FORMAT(20a4)                                                                   
ASP ALA TYR ALA GLN TRP LEU ALA ASP GLY GLY PRO SER SER GLY ARG PRO PRO PRO SER 
%FLAG RESIDUE_POINTER                                                           
%FORMAT(10I8)                                                                   
       1      15      25      46      56      73      97     116     126     138
     145     152     166     177     188     195     219     233     247     261
%FLAG BOND_FORCE_CONSTANT                                                       
%FORMAT(5E16.8)                                                                 
  5.70000000E+02  4.90000000E+02  6.56000000E+02  3.40000000E+02  3.17000000E+02
  3.40000000E+02  3.10000000E+02  3.17000000E+02  4.34000000E+02  3.67000000E+02
  3.40000000E+02  3.40000000E+02  3.10000000E+02  4.34000000E+02  3.37000000E+02
  3.67000000E+02  4.69000000E+02  5.53000000E+02  4.50000000E+02  4.69000000E+02
  3.17000000E+02  3.17000000E+02  3.10000000E+02  4.69000000E+02  4.69000000E+02
  4.47000000E+02  4.34000000E+02  4.28000000E+02  3.67000000E+02  4.27000000E+02
  5.46000000E+02  3.88000000E+02  3.17000000E+02  3.40000000E+02  3.10000000E+02
  3.10000000E+02  3.10000000E+02  3.40000000E+02  3.37000000E+02  3.40000000E+02
  3.20000000E+02  4.34000000E+02  4.81000000E+02  3.40000000E+02  3.37000000E+02
  3.40000000E+02  3.10000000E+02  3.10000000E+02  6.56000000E+02
%FLAG BOND_EQUIL_VALUE                                                          
%FORMAT(5E16.8)                                                                 
  1.22900000E+00  1.33500000E+00  1.25000000E+00  1.09000000E+00  1.52200000E+00
  1.09000000E+00  1.52600000E+00  1.52200000E+00  1.01000000E+00  1.47100000E+00
  1.09000000E+00  1.09000000E+00  1.52600000E+00  1.01000000E+00  1.44900000E+00
  1.08000000E+00  1.40000000E+00  9.60000000E-01  1.36400000E+00  1.40900000E+00
  1.51000000E+00  1.52200000E+00  1.52600000E+00  1.40400000E+00  1.40000000E+00
  1.41900000E+00  1.01000000E+00  1.38000000E+00  1.08000000E+00  1.38100000E+00
  1.35200000E+00  1.45900000E+00  1.49500000E+00  1.09000000E+00  1.52600000E+00
  1.52600000E+00  1.52600000E+00  1.09000000E+00  1.44900000E+00  1.09000000E+00
  1.41000000E+00  1.01000000E+00  1.34000000E+00  1.09000000E+00  1.46300000E+00
  1.09000000E+00  1.52600000E+00  1.52600000E+00  1.25000000E+00
%FLAG ANGLE_FORCE_CONSTANT                                                      
%FORMAT(5E16.8)                                                                 
  8.00000000E+01  5.00000000E+01  5.00000000E+01  8.00000000E+01  5.00000000E+01
  3.50000000E+01  6.30000000E+01  7.00000000E+01  5.00000000E+01  5.00000000E+01
  5.00000000E+01  6.30000000E+01  8.00000000E+01  7.00000000E+01  5.00000000E+01
  3.50000000E+01  5.00000000E+01  8.00000000E+01  8.00000000E+01  3.50000000E+01
  6.30000000E+01  5.00000000E+01  5.00000000E+01  5.00000000E+01  5.00000000E+01
  5.00000000E+01  8.00000000E+01  6.30000000E+01  5.00000000E+01  7.00000000E+01
  5.00000000E+01  5.00000000E+01  6.30000000E+01  6.30000000E+01  6.30000000E+01
  5.00000000E+01  7.00000000E+01  6.30000000E+01  3.50000000E+01  5.00000000E+01
  8.00000000E+01  7.00000000E+01  5.00000000E+01  6.30000000E+01  5.00000000E+01
  4.00000000E+01  8.00000000E+01  5.00000000E+01  6.30000000E+01  6.30000000E+01
  5.00000000E+01  6.30000000E+01  6.30000000E+01  5.00000000E+01  7.00000000E+01
  7.00000000E+01  5.00000000E+01  6.30000000E+01  5.00000000E+01  7.00000000E+01
  5.00000000E+01  7.00000000E+01  6.30000000E+01  6.30000000E+01  5.00000000E+01
  7.00000000E+01  7.00000000E+01  6.30000000E+01  4.00000000E+01  5.00000000E+01
  5.00000000E+01  5.00000000E+01  5.00000000E+01  4.00000000E+01  4.00000000E+01
  3.50000000E+01  5.00000000E+01  5.00000000E+01  4.00000000E+01  5.00000000E+01
  3.50000000E+01  5.00000000E+01  4.00000000E+01  5.00000000E+01  8.00000000E+01
  5.00000000E+01  3.50000000E+01  5.50000000E+01  5.00000000E+01  5.00000000E+01
  3.50000000E+01  7.00000000E+01  5.00000000E+01  5.00000000E+01  3.50000000E+01
  5.00000000E+01  5.00000000E+01  5.00000000E+01  3.50000000E+01  5.00000000E+01
  8.00000000E+01  6.30000000E+01  4.00000000E+01  5.00000000E+01  5.00000000E+01
  4.00000000E+01  8.00000000E+01  8.00000000E+01  7.00000000E+01
%FLAG ANGLE_EQUIL_VALUE                                                         
%FORMAT(5E16.8)                                                                 
  2.14501057E+00  2.09439600E+00  2.12755727E+00  2.19911580E+00  1.91113635E+00
  1.91113635E+00  1.93906163E+00  2.04203610E+00  1.91113635E+00  1.91113635E+00
  1.91113635E+00  1.93906163E+00  2.10137732E+00  2.03505478E+00  1.91113635E+00
  1.91113635E+00  1.91113635E+00  1.94080696E+00  1.94080696E+00  1.91113635E+00
  1.93906163E+00  1.91113635E+00  1.91113635E+00  1.91113635E+00  2.06018753E+00
  1.91113635E+00  1.91462701E+00  1.92160833E+00  2.09439600E+00  2.09439600E+00
  1.97222290E+00  2.09439600E+00  2.09439600E+00  2.09439600E+00  2.09439600E+00
  1.91113635E+00  2.09439600E+00  1.98967620E+00  2.09439600E+00  1.91113635E+00
  2.10137732E+00  2.03505478E+00  1.91113635E+00  1.93906163E+00  1.91113635E+00
  1.91113635E+00  1.91462701E+00  2.09439600E+00  2.09439600E+00  2.14151991E+00
  2.09439600E+00  2.09439600E+00  2.02807346E+00  2.14850123E+00  2.31779824E+00
  1.82212452E+00  2.09439600E+00  1.85703112E+00  2.09439600E+00  1.94778828E+00
  2.09439600E+00  1.89717371E+00  1.89891904E+00  2.35445017E+00  1.91113635E+00
  2.18166250E+00  2.24449438E+00  2.01760148E+00  1.91113635E+00  1.91113635E+00
  1.91113635E+00  1.91113635E+00  1.91113635E+00  1.91113635E+00  1.91113635E+00
  1.91113635E+00  2.12755727E+00  1.91113635E+00  1.91113635E+00  1.91113635E+00
  1.91113635E+00  2.05948940E+00  1.91113635E+00  1.91113635E+00  1.91462701E+00
  1.91113635E+00  1.91113635E+00  1.89368305E+00  1.91113635E+00  1.91113635E+00
  2.09439600E+00  2.09439600E+00  2.09439600E+00  1.91113635E+00  1.91113635E+00
  2.06647072E+00  2.15024656E+00  1.91113635E+00  1.91113635E+00  1.91113635E+00
  1.94080696E+00  1.93906163E+00  1.91113635E+00  1.91113635E+00  1.91113635E+00
  1.91113635E+00  1.91462701E+00  2.19911580E+00  2.04203610E+00
%FLAG DIHEDRAL_FORCE_CONSTANT                                                   
%FORMAT(5E16.8)                                                                 
  2.00000000E+00  2.50000000E+00  0.00000000E+00  1.80000000E+00  8.00000000E-01
  0.00000000E+00  0.00000000E+00  2.70000000E-01  4.20000000E-01  4.24000000E-01
  4.59000000E-01  5.80000000E-02  1.54000000E-01  1.55555556E-01  2.00000000E-01
  2.00000000E-01  4.00000000E-01  7.69000000E-01  0.00000000E+00  3.10000000E-02
  2.15400000E+00  6.47000000E-01  8.90000000E-02  8.00000000E-01  8.00000000E-02
  4.50000000E-01  1.58000000E+00  5.50000000E-01  3.62500000E+00  8.83000000E-01
  6.50000000E-02  5.50000000E-02  4.69000000E-01  1.92000000E-01  1.20000000E-02
  6.90000000E-02  4.80000000E-02  1.20000000E-02  2.90000000E-01  7.00000000E-03
  4.21000000E-01  3.93000000E-01  1.44000000E-01  1.45000000E-01  1.50000000E-01
  6.09000000E-01  8.45000000E-01  8.50000000E-02  4.20000000E-02  1.60000000E-01
  1.96000000E-01  8.30000000E-02  4.12000000E-01  1.38000000E-01  1.00000000E-01
  1.84000000E-01  7.80000000E-02  3.00000000E+00  3.50000000E+00  1.52500000E+00
  6.52500000E+00  1.50000000E+00  1.67500000E+00  1.70000000E-02  3.53000000E-01
  2.34000000E-01  7.40000000E-02  3.65000000E-01  4.08000000E-01  8.19000000E-01
  9.50000000E-02  7.90000000E-02  3.13000000E-01  3.10000000E-02  7.06000000E-01
  6.20000000E-01  1.90000000E-01  3.79000000E-01  2.70000000E-02  1.42000000E-01
  1.79000000E-01  9.80000000E-02  2.59000000E-01  7.30000000E-02  2.00000000E+00
  2.00000000E-01  2.50000000E-01  1.80000000E-01  6.61000000E-01  2.18000000E-01
  4.01000000E-01  1.29000000E-01  1.66666667E-01  2.50000000E-01  2.11000000E-01
  4.44000000E-01  2.67000000E-01  7.00000000E-03  6.66000000E-01  2.46000000E-01
  1.60000000E-01  2.40000000E+00  1.05000000E+01  1.10000000E+00  1.00000000E+00
  0.00000000E+00
%FLAG DIHEDRAL_PERIODICITY                                                      
%FORMAT(5E16.8)                                                                 
  1.00000000E+00  2.00000000E+00  2.00000000E+00  2.00000000E+00  3.00000000E+00
  4.00000000E+00  1.00000000E+00  2.00000000E+00  3.00000000E+00  1.00000000E+00
  2.00000000E+00  3.00000000E+00  4.00000000E+00  3.00000000E+00  1.00000000E+00
  2.00000000E+00  3.00000000E+00  2.00000000E+00  3.00000000E+00  4.00000000E+00
  1.00000000E+00  2.00000000E+00  4.00000000E+00  1.00000000E+00  3.00000000E+00
  1.00000000E+00  2.00000000E+00  3.00000000E+00  2.00000000E+00  2.00000000E+00
  4.00000000E+00  1.00000000E+00  2.00000000E+00  3.00000000E+00  4.00000000E+00
  2.00000000E+00  4.00000000E+00  1.00000000E+00  2.00000000E+00  4.00000000E+00
  1.00000000E+00  2.00000000E+00  3.00000000E+00  4.00000000E+00  3.00000000E+00
  1.00000000E+00  2.00000000E+00  3.00000000E+00  4.00000000E+00  3.00000000E+00
  1.00000000E+00  2.00000000E+00  3.00000000E+00  4.00000000E+00  1.00000000E+00
  2.00000000E+00  4.00000000E+00  2.00000000E+00  2.00000000E+00  2.00000000E+00
  2.00000000E+00  2.00000000E+00  2.00000000E+00  1.00000000E+00  2.00000000E+00
  3.00000000E+00  4.00000000E+00  1.00000000E+00  2.00000000E+00  3.00000000E+00
  4.00000000E+00  1.00000000E+00  2.00000000E+00  4.00000000E+00  1.00000000E+00
  2.00000000E+00  4.00000000E+00  1.00000000E+00  2.00000000E+00  3.00000000E+00
  4.00000000E+00  1.00000000E+00  2.00000000E+00  4.00000000E+00  2.00000000E+00
  1.00000000E+00  2.00000000E+00  3.00000000E+00  1.00000000E+00  2.00000000E+00
  3.00000000E+00  4.00000000E+00  3.00000000E+00  1.00000000E+00  1.00000000E+00
  2.00000000E+00  3.00000000E+00  4.00000000E+00  1.00000000E+00  2.00000000E+00
  4.00000000E+00  2.00000000E+00  2.00000000E+00  2.00000000E+00  2.00000000E+00
  2.00000000E+00
%FLAG DIHEDRAL_PHASE                                                            
%FORMAT(5E16.8)                                                                 
  0.00000000E+00  3.14159400E+00  0.00000000E+00  0.00000000E+00  0.00000000E+00
  0.00000000E+00  0.00000000E+00  0.00000000E+00  0.00000000E+00  0.00000000E+00
  3.14159400E+00  0.00000000E+00  0.00000000E+00  0.00000000E+00  0.00000000E+00
  0.00000000E+00  0.00000000E+00  3.14159400E+00  0.00000000E+00  3.14159400E+00
  3.14159400E+00  3.14159400E+00  0.00000000E+00  0.00000000E+00  3.14159400E+00
  3.14159400E+00  3.14159400E+00  3.14159400E+00  3.14159400E+00  3.14159400E+00
  0.00000000E+00  0.00000000E+00  3.14159400E+00  0.00000000E+00  3.14159400E+00
  3.14159400E+00  3.14159400E+00  3.14159400E+00  3.14159400E+00  3.14159400E+00
  3.14159400E+00  3.14159400E+00  0.00000000E+00  0.00000000E+00  0.00000000E+00
  3.14159400E+00  3.14159400E+00  3.14159400E+00  0.00000000E+00  0.00000000E+00
  3.14159400E+00  0.00000000E+00  3.14159400E+00  0.00000000E+00  3.14159400E+00
  3.14159400E+00  0.00000000E+00  3.14159400E+00  3.14159400E+00  3.14159400E+00
  3.14159400E+00  3.14159400E+00  3.14159400E+00  3.14159400E+00  3.14159400E+00
  0.00000000E+00  0.00000000E+00  0.00000000E+00  0.00000000E+00  0.00000000E+00
  3.14159400E+00  0.00000000E+00  3.14159400E+00  0.00000000E+00  0.00000000E+00
  3.14159400E+00  0.00000000E+00  0.00000000E+00  3.14159400E+00  0.00000000E+00
  0.00000000E+00  0.00000000E+00  3.14159400E+00  0.00000000E+00  0.00000000E+00
  3.14159400E+00  3.14159400E+00  0.00000000E+00  3.14159400E+00  3.14159400E+00
  0.00000000E+00  0.00000000E+00  0.00000000E+00  0.00000000E+00  0.00000000E+00
  0.00000000E+00  0.00000000E+00  0.00000000E+00  0.00000000E+00  3.14159400E+00
  0.00000000E+00  3.14159400E+00  3.14159400E+00  3.14159400E+00  3.14159400E+00
  3.14159400E+00
%FLAG SCEE_SCALE_FACTOR                                                         
%FORMAT(5E16.8)                                                                 
  1.20000000E+00  1.20000000E+00  1.20000000E+00  1.20000000E+00  1.20000000E+00
  1.20000000E+00  1.20000000E+00  1.20000000E+00  1.20000000E+00  1.20000000E+00
  1.20000000E+00  1.20000000E+00  1.20000000E+00  1.20000000E+00  1.20000000E+00
  1.20000000E+00  1.20000000E+00  1.20000000E+00  1.20000000E+00  1.20000000E+00
  1.20000000E+00  1.20000000E+00  1.20000000E+00  1.20000000E+00  1.20000000E+00
  1.20000000E+00  1.20000000E+00  1.20000000E+00  1.20000000E+00  1.20000000E+00
  1.20000000E+00  1.20000000E+00  1.20000000E+00  1.20000000E+00  1.20000000E+00
  1.20000000E+00  1.20000000E+00  1.20000000E+00  1.20000000E+00  1.20000000E+00
  1.20000000E+00  1.20000000E+00  1.20000000E+00  1.20000000E+00  1.20000000E+00
  1.20000000E+00  1.20000000E+00  1.20000000E+00  1.20000000E+00  1.20000000E+00
  1.20000000E+00  1.20000000E+00  1.20000000E+00  1.20000000E+00  1.20000000E+00
  1.20000000E+00  1.20000000E+00  1.20000000E+00  1.20000000E+00  1.20000000E+00
  1.20000000E+00  1.20000000E+00  1.20000000E+00  1.20000000E+00  1.20000000E+00
  1.20000000E+00  1.20000000E+00  1.20000000E+00  1.20000000E+00  1.20000000E+00
  1.20000000E+00  1.20000000E+00  1.20000000E+00  1.20000000E+00  1.20000000E+00
  1.20000000E+00  1.20000000E+00  1.20000000E+00  1.20000000E+00  1.20000000E+00
  1.20000000E+00  1.20000000E+00  1.20000000E+00  1.20000000E+00  1.20000000E+00
  1.20000000E+00  1.20000000E+00  1.20000000E+00  1.20000000E+00  1.20000000E+00
  1.20000000E+00  1.20000000E+00  1.20000000E+00  1.20000000E+00  1.20000000E+00
  1.20000000E+00  1.20000000E+00  1.20000000E+00  1.20000000E+00  1.20000000E+00
  1.20000000E+00  1.20000000E+00  0.00000000E+00  0.00000000E+00  0.00000000E+00
  0.00000000E+00
%FLAG SCNB_SCALE_FACTOR                                                         
%FORMAT(5E16.8)                                                                 
  2.00000000E+00  2.00000000E+00  2.00000000E+00  2.00000000E+00  2.00000000E+00
  2.00000000E+00  2.00000000E+00  2.00000000E+00  2.00000000E+00  2.00000000E+00
  2.00000000E+00  2.00000000E+00  2.00000000E+00  2.00000000E+00  2.00000000E+00
  2.00000000E+00  2.00000000E+00  2.00000000E+00  2.00000000E+00  2.00000000E+00
  2.00000000E+00  2.00000000E+00  2.00000000E+00  2.00000000E+00  2.00000000E+00
  2.00000000E+00  2.00000000E+00  2.00000000E+00  2.00000000E+00  2.00000000E+00
  2.00000000E+00  2.00000000E+00  2.00000000E+00  2.00000000E+00  2.00000000E+00
  2.00000000E+00  2.00000000E+00  2.00000000E+00  2.00000000E+00  2.00000000E+00
  2.00000000E+00  2.00000000E+00  2.00000000E+00  2.00000000E+00  2.00000000E+00
  2.00000000E+00  2.00000000E+00  2.00000000E+00  2.00000000E+00  2.00000000E+00
  2.00000000E+00  2.00000000E+00  2.00000000E+00  2.00000000E+00  2.00000000E+00
  2.00000000E+00  2.00000000E+00  2.00000000E+00  2.00000000E+00  2.00000000E+00
  2.00000000E+00  2.00000000E+00  2.00000000E+00  2.00000000E+00  2.00000000E+00
  2.00000000E+00  2.00000000E+00  2.00000000E+00  2.00000000E+00  2.00000000E+00
  2.00000000E+00  2.00000000E+00  2.00000000E+00  2.00000000E+00  2.00000000E+00
  2.00000000E+00  2.00000000E+00  2.00000000E+00  2.00000000E+00  2.00000000E+00
  2.00000000E+00  2.00000000E+00  2.00000000E+00  2.00000000E+00  2.00000000E+00
  2.00000000E+00  2.00000000E+00  2.00000000E+00  2.00000000E+00  2.00000000E+00
  2.00000000E+00  2.00000000E+00  2.00000000E+00  2.00000000E+00  2.00000000E+00
  2.00000000E+00  2.00000000E+00  2.00000000E+00  2.00000000E+00  2.00000000E+00
  2.00000000E+00  2.00000000E+00  0.00000000E+00  0.00000000E+00  0.00000000E+00
  0.00000000E+00
%FLAG SOLTY                                                                     
%FORMAT(5E16.8)                                                                 
  0.00000000E+00  0.00000000E+00  0.00000000E+00  0.00000000E+00  0.00000000E+00
  0.00000000E+00  0.00000000E+00  0.00000000E+00  0.00000000E+00  0.00000000E+00
  0.00000000E+00  0.00000000E+00  0.00000000E+00  0.00000000E+00  0.00000000E+00
  0.00000000E+00  0.00000000E+00  0.00000000E+00  0.00000000E+00  0.00000000E+00
  0.00000000E+00  0.00000000E+00  0.00000000E+00  0.00000000E+00  0.00000000E+00
  0.00000000E+00
%FLAG LENNARD_JONES_ACOEF                                                       
%FORMAT(5E16.8)                                                                 
  9.44293233E+05  2.12601181E+03  1.39982777E-01  9.95480466E+05  2.56678134E+03
  1.04308023E+06  2.01791425E+04  9.14716912E+00  2.27401052E+04  2.01823541E+02
  8.96776989E+04  1.07193646E+02  9.71708117E+04  1.41077189E+03  7.51607703E+03
  8.82619071E+05  2.27577561E+03  9.24822270E+05  2.01619733E+04  8.61541883E+04
  8.19971662E+05  6.06829342E+05  1.02595236E+03  6.47841731E+05  1.12780457E+04
  5.44261042E+04  5.74393458E+05  3.79876399E+05  6.20665997E+04  5.94667300E+01
  6.78771368E+04  8.79040886E+02  4.98586848E+03  6.01816484E+04  3.69471530E+04
  3.25969625E+03  7.91627154E+04  8.90987508E+01  8.59947003E+04  1.21014911E+03
  6.55825601E+03  7.62451550E+04  4.77908183E+04  4.33325458E+03  5.71629601E+03
  7.44975864E+05  1.40467023E+03  7.91544157E+05  1.45985502E+04  6.82786631E+04
  7.01803794E+05  4.71003287E+05  4.66922514E+04  6.00750218E+04  5.81803229E+05
  0.00000000E+00  0.00000000E+00  0.00000000E+00  0.00000000E+00  0.00000000E+00
  0.00000000E+00  0.00000000E+00  0.00000000E+00  0.00000000E+00  0.00000000E+00
  0.00000000E+00  6.58473870E+04  6.63368273E+01  7.18621074E+04  9.55000044E+02
  5.34045360E+03  6.37148278E+04  3.93690817E+04  3.50301067E+03  4.64559155E+03
  4.96707306E+04  0.00000000E+00  3.76169105E+03
%FLAG LENNARD_JONES_BCOEF                                                       
%FORMAT(5E16.8)                                                                 
  8.01323529E+02  2.09604198E+01  9.37598976E-02  7.36907417E+02  2.06278363E+01
  6.75612247E+02  6.45756063E+01  7.57919667E-01  6.13981767E+01  3.56012899E+00
  1.36131731E+02  2.59456373E+00  1.26919150E+02  9.41257003E+00  2.17257828E+01
  6.53361429E+02  1.82891803E+01  5.99015525E+02  5.44372326E+01  1.12529845E+02
  5.31102864E+02  6.77220874E+02  1.53505284E+01  6.26720080E+02  5.08951803E+01
  1.11805549E+02  5.55666448E+02  5.64885984E+02  1.13252061E+02  1.93248820E+00
  1.06076943E+02  7.42992380E+00  1.76949863E+01  9.40505980E+01  9.21192136E+01
  1.43076527E+01  1.26451907E+02  2.33864085E+00  1.18043746E+02  8.61880722E+00
  2.00642027E+01  1.04660679E+02  1.03580945E+02  1.63092814E+01  1.85196588E+01
  7.50714425E+02  1.79702257E+01  6.93079947E+02  5.79323581E+01  1.25287818E+02
  6.14502845E+02  6.29300710E+02  1.03606917E+02  1.16187983E+02  6.99746810E+02
  0.00000000E+00  0.00000000E+00  0.00000000E+00  0.00000000E+00  0.00000000E+00
  0.00000000E+00  0.00000000E+00  0.00000000E+00  0.00000000E+00  0.00000000E+00
  0.00000000E+00  1.15327881E+02  2.01792524E+00  1.07908863E+02  7.65648470E+00
  1.81057616E+01  9.56748258E+01  9.40124296E+01  1.46638650E+01  1.66953734E+01
  1.05648788E+02  0.00000000E+00  1.50233639E+01
%FLAG BONDS_INC_HYDROGEN                                                        
%FORMAT(10I8)                                                                   
      18      21       4      18      24       4      12      15       6       0
       3       9       0       6       9       0       9       9      54      57
      11      54      60      11      54      63      11      48      51      12
      42      45      14     123     126      16     117     120      16     111
     114      18     102     105      16      96      99      16      84      87
      11      84      90      11      78      81      12      72      75      14
     147     150      11     147     153      11     147     156      11     141
     144      12     135     138      14     201     204      14     201     207
      14     186     189       4     186     192       4     177     180       4
     177     183       4     171     174      12     165     168      14     273
     276      16     267     270      16     261     264      16     255     258
      16     246     249      27     240     243      29     228     231      11
     228     234      11     222     225      12     216     219      14     327
     330      11     327     333      11     327     336      11     315     318
      11     315     321      11     315     324      11     309     312      34
     300     303       4     300     306       4     294     297      12     288
     291      14     357     360      11     357     363      11     357     366
      11     351     354      12     345     348      14     387     390       4
     387     393       4     381     384      12     375     378      14     417
     420      12     417     423      12     411     414      14     438     441
      12     438     444      12     432     435      14     483     486      12
     474     477      11     474     480      11     465     468      11     465
     471      11     456     459      38     456     462      38     516     519
      18     507     510      40     507     513      40     501     504      12
     495     498      14     549     552      18     540     543      40     540
     546      40     534     537      12     528     531      14     567     570
      12     567     573      12     561     564      14     639     642      42
     639     645      42     630     633      42     630     636      42     621
     624      42     612     615      44     612     618      44     603     606
      46     603     609      46     594     597      46     594     600      46
     588     591      12     582     585      14     684     687      12     675
     678      11     675     681      11     666     669      11     666     672
      11     657     660      38     657     663      38     726     729      12
     717     720      11     717     723      11     708     711      11     708
     714      11     699     702      38     699     705      38     768     771
      12     759     762      11     759     765      11     750     753      11
     750     756      11     741     744      38     741     747      38     801
     804      18     792     795      40     792     798      40     786     789
      12     780     783      14
%FLAG BONDS_WITHOUT_HYDROGEN                                                    
%FORMAT(10I8)                                                                   
      36      39       1      36      42       2      27      30       3      27
      33       3      18      27       5      12      18       7      12      36
       8       0      12      10      66      69       1      66      72       2
      48      54      13      48      66       8      42      48      15     129
     132       1     129     135       2     117     123      17     108     111
      19     108     117      20     102     108      20      96     102      17
      93      96      17      93     123      17      84      93      21      78
      84      13      78     129       8      72      78      15     159     162
       1     159     165       2     141     147      13     141     159       8
     135     141      15     210     213       1     210     216       2     195
     198       1     195     201       2     186     195      22     177     186
      23     171     177       7     171     210       8     165     171      15
     282     285       1     282     288       2     273     279      24     267
     273      17     261     267      17     255     261      17     252     255
      25     252     279      26     246     252      28     240     246      30
     237     240      31     237     279      32     228     237      33     222
     228      13     222     282       8     216     222      15     339     342
       1     339     345       2     309     315      35     309     327      35
     300     309      36     294     300       7     294     339       8     288
     294      15     369     372       1     369     375       2     351     357
      13     351     369       8     345     351      15     405     408       1
     405     411       2     396     399       3     396     402       3     387
     396       5     381     387       7     381     405       8     375     381
      15     426     429       1     426     432       2     417     426       8
     411     417      15     447     450       1     447     453       2     438
     447       8     432     438      15     489     492       1     489     495
       2     483     489       8     474     483      13     465     474      37
     456     465      37     453     456      39     453     483      15     522
     525       1     522     528       2     507     516      41     501     507
       7     501     522       8     495     501      15     555     558       1
     555     561       2     540     549      41     534     540       7     534
     555       8     528     534      15     576     579       1     576     582
       2     567     576       8     561     567      15     648     651       1
     648     654       2     627     630      43     627     639      43     621
     627      43     612     621      45     603     612      47     594     603
      47     588     594      48     588     648       8     582     588      15
     690     693       1     690     696       2     684     690       8     675
     684      13     666     675      37     657     666      37     654     657
      39     654     684      15     732     735       1     732     738       2
     726     732       8     717     726      13     708     717      37     699
     708      37     696     699      39     696     726      15     774     777
       1     774     780       2     768     774       8     759     768      13
     750     759      37     741     750      37     738     741      39     738
     768      15     807     810      49     807     813      49     792     801
      41     786     792       7     786     807       8     780     786      15
%FLAG ANGLES_INC_HYDROGEN                                                       
%FORMAT(10I8)                                                                   
      36      42      45       2      24      18      27       5      21      18
      24       6      21      18      27       5      15      12      18       9
      15      12      36      10      12      18      21      11      12      18
      24      11       9       0      12      15       6       0       9      16
       6       0      12      15       3       0       6      16       3       0
       9      16       3       0      12      15       0      12      15      17
      66      72      75       2      60      54      63      20      57      54
      60      20      57      54      63      20      51      48      54      22
      51      48      66      23      48      54      57      24      48      54
      60      24      48      54      63      24      45      42      48      25
      42      48      51      26     129     135     138       2     120     117
     123      29     117     123     126      29     108     111     114      31
     108     117     120      32     105     102     108      32      99      96
     102      29      96     102     105      29      93      96      99      29
      93     123     126      29      90      84      93      36      87      84
      90      20      87      84      93      36      81      78      84      22
      81      78     129      23      78      84      87      24      78      84
      90      24      75      72      78      25      72      78      81      26
     159     165     168       2     153     147     156      20     150     147
     153      20     150     147     156      20     144     141     147      22
     144     141     159      23     141     147     150      24     141     147
     153      24     141     147     156      24     138     135     141      25
     135     141     144      26     210     216     219       2     204     201
     207      39     195     201     204       2     195     201     207       2
     192     186     195      40     189     186     192       6     189     186
     195      40     183     177     186      43     180     177     183       6
     180     177     186      43     177     186     189      43     177     186
     192      43     174     171     177      45     174     171     210      23
     171     177     180      11     171     177     183      11     168     165
     171      25     165     171     174      26     282     288     291       2
     276     273     279      48     270     267     273      29     267     273
     276      29     264     261     267      29     261     267     270      29
     258     255     261      29     255     261     264      29     252     255
     258      51     249     246     252      54     243     240     246      57
     240     246     249      59     237     240     243      61     234     228
     237      65     231     228     234      20     231     228     237      65
     225     222     228      22     225     222     282      23     222     228
     231      24     222     228     234      24     219     216     222      25
     216     222     225      26     339     345     348       2     333     327
     336      20     330     327     333      20     330     327     336      20
     321     315     324      20     318     315     321      20     318     315
     324      20     312     309     315      70     312     309     327      70
     309     315     318      71     309     315     321      71     309     315
     324      71     309     327     330      71     309     327     333      71
     309     327     336      71     306     300     309      72     303     300
     306       6     303     300     309      72     300     309     312      73
     297     294     300      45     297     294     339      23     294     300
     303      11     294     300     306      11     291     288     294      25
     288     294     297      26     369     375     378       2     363     357
     366      20     360     357     363      20     360     357     366      20
     354     351     357      22     354     351     369      23     351     357
     360      24     351     357     363      24     351     357     366      24
     348     345     351      25     345     351     354      26     405     411
     414       2     393     387     396       5     390     387     393       6
     390     387     396       5     384     381     387      45     384     381
     405      23     381     387     390      11     381     387     393      11
     378     375     381      25     375     381     384      26     426     432
     435       2     423     417     426      23     420     417     423      76
     420     417     426      23     414     411     417      25     411     417
     420      26     411     417     423      26     444     438     447      23
     441     438     444      76     441     438     447      23     435     432
     438      25     432     438     441      26     432     438     444      26
     489     495     498       2     486     483     489      23     480     474
     483      24     477     474     480      20     477     474     483      24
     474     483     486      22     471     465     474      78     468     465
     471      20     468     465     474      78     465     474     477      78
     465     474     480      78     462     456     465      80     459     456
     462      81     459     456     465      80     456     465     468      78
     456     465     471      78     453     456     459      84     453     456
     462      84     453     483     486      26     522     528     531       2
     513     507     516      86     510     507     513      87     510     507
     516      86     507     516     519      88     504     501     507      45
     504     501     522      23     501     507     510      89     501     507
     513      89     498     495     501      25     495     501     504      26
     555     561     564       2     546     540     549      86     543     540
     546      87     543     540     549      86     540     549     552      88
     537     534     540      45     537     534     555      23     534     540
     543      89     534     540     546      89     531     528     534      25
     528     534     537      26     576     582     585       2     573     567
     576      23     570     567     573      76     570     567     576      23
     564     561     567      25     561     567     570      26     561     567
     573      26     642     639     645      91     633     630     636      91
     627     630     633      93     627     630     636      93     627     639
     642      93     627     639     645      93     624     621     627      93
     618     612     621      94     615     612     618      95     615     612
     621      94     612     621     624      96     609     603     612      98
     606     603     609      99     606     603     612      98     603     612
     615     100     603     612     618     100     600     594     603      98
     597     594     600      99     597     594     603      98     594     603
     606      98     594     603     609      98     591     588     594     104
     591     588     648      23     588     594     597     105     588     594
     600     105     585     582     588      25     582     588     591      26
     687     684     690      23     681     675     684      24     678     675
     681      20     678     675     684      24     675     684     687      22
     672     666     675      78     669     666     672      20     669     666
     675      78     666     675     678      78     666     675     681      78
     663     657     666      80     660     657     663      81     660     657
     666      80     657     666     669      78     657     666     672      78
     654     657     660      84     654     657     663      84     654     684
     687      26     729     726     732      23     723     717     726      24
     720     717     723      20     720     717     726      24     717     726
     729      22     714     708     717      78     711     708     714      20
     711     708     717      78     708     717     720      78     708     717
     723      78     705     699     708      80     702     699     705      81
     702     699     708      80     699     708     711      78     699     708
     714      78     696     699     702      84     696     699     705      84
     696     726     729      26     774     780     783       2     771     768
     774      23     765     759     768      24     762     759     765      20
     762     759     768      24     759     768     771      22     756     750
     759      78     753     750     756      20     753     750     759      78
     750     759     762      78     750     759     765      78     747     741
     750      80     744     741     747      81     744     741     750      80
     741     750     753      78     741     750     756      78     738     741
     744      84     738     741     747      84     738     768     771      26
     798     792     801      86     795     792     798      87     795     792
     801      86     792     801     804      88     789     786     792      45
     789     786     807      23     786     792     795      89     786     792
     798      89     783     780     786      25     780     786     789      26
%FLAG ANGLES_WITHOUT_HYDROGEN                                                   
%FORMAT(10I8)                                                                   
      39      36      42       1      36      42      48       3      30      27
      33       4      18      12      36       7      18      27      30       8
      18      27      33       8      12      18      27      12      12      36
      39      13      12      36      42      14       0      12      18      18
       0      12      36      19      69      66      72       1      66      72
      78       3      54      48      66      21      48      66      69      13
      48      66      72      14      42      48      54      27      42      48
      66      28     132     129     135       1     129     135     141       3
     111     108     117      30     108     117     123      33     102     108
     111      30     102     108     117      34      96      93     123      35
      96     102     108      33      93      96     102      35      93     123
     117      35      84      78     129      21      84      93      96      37
      84      93     123      37      78      84      93      38      78     129
     132      13      78     129     135      14      72      78      84      27
      72      78     129      28     162     159     165       1     159     165
     171       3     147     141     159      21     141     159     162      13
     141     159     165      14     135     141     147      27     135     141
     159      28     213     210     216       1     210     216     222       3
     198     195     201       1     186     195     198      41     186     195
     201      42     177     171     210       7     177     186     195      44
     171     177     186      46     171     210     213      13     171     210
     216      14     165     171     177      47     165     171     210      28
     285     282     288       1     282     288     294       3     267     273
     279      49     261     267     273      35     255     252     279      50
     255     261     267      35     252     255     261      52     252     279
     273      53     246     252     255      55     246     252     279      56
     240     237     279      58     240     246     252      60     237     240
     246      62     237     279     252      63     237     279     273      64
     228     222     282      21     228     237     240      66     228     237
     279      67     222     228     237      68     222     282     285      13
     222     282     288      14     216     222     228      27     216     222
     282      28     342     339     345       1     339     345     351       3
     315     309     327      69     300     294     339       7     300     309
     315      74     300     309     327      74     294     300     309      75
     294     339     342      13     294     339     345      14     288     294
     300      47     288     294     339      28     372     369     375       1
     369     375     381       3     357     351     369      21     351     369
     372      13     351     369     375      14     345     351     357      27
     345     351     369      28     408     405     411       1     405     411
     417       3     399     396     402       4     387     381     405       7
     387     396     399       8     387     396     402       8     381     387
     396      12     381     405     408      13     381     405     411      14
     375     381     387      47     375     381     405      28     429     426
     432       1     426     432     438       3     417     426     429      13
     417     426     432      14     411     417     426      28     450     447
     453       1     447     453     456      77     447     453     483       3
     438     447     450      13     438     447     453      14     432     438
     447      28     492     489     495       1     489     495     501       3
     483     489     492      13     483     489     495      14     474     483
     489      21     465     474     483      79     456     453     483      82
     456     465     474      83     453     456     465      85     453     483
     474      27     453     483     489      28     525     522     528       1
     522     528     534       3     507     501     522       7     501     507
     516      90     501     522     525      13     501     522     528      14
     495     501     507      47     495     501     522      28     558     555
     561       1     555     561     567       3     540     534     555       7
     534     540     549      90     534     555     558      13     534     555
     561      14     528     534     540      47     528     534     555      28
     579     576     582       1     576     582     588       3     567     576
     579      13     567     576     582      14     561     567     576      28
     651     648     654       1     648     654     657      77     648     654
     684       3     630     627     639      92     621     627     630      92
     621     627     639      92     612     621     627      97     603     612
     621     101     594     588     648     102     594     603     612     103
     588     594     603     106     588     648     651      13     588     648
     654      14     582     588     594     107     582     588     648      28
     693     690     696       1     690     696     699      77     690     696
     726       3     684     690     693      13     684     690     696      14
     675     684     690      21     666     675     684      79     657     654
     684      82     657     666     675      83     654     657     666      85
     654     684     675      27     654     684     690      28     735     732
     738       1     732     738     741      77     732     738     768       3
     726     732     735      13     726     732     738      14     717     726
     732      21     708     717     726      79     699     696     726      82
     699     708     717      83     696     699     708      85     696     726
     717      27     696     726     732      28     777     774     780       1
     774     780     786       3     768     774     777      13     768     774
     780      14     759     768     774      21     750     759     768      79
     741     738     768      82     741     750     759      83     738     741
     750      85     738     768     759      27     738     768     774      28
     810     807     813     108     792     786     807       7     786     792
     801      90     786     807     810     109     786     807     813     109
     780     786     792      47     780     786     807      28
%FLAG DIHEDRALS_INC_HYDROGEN                                                    
%FORMAT(10I8)                                                                   
      39      36      42      45       1      39      36     -42      45       2
      36      42      48      51       3      24      18      12      36      14
      24      18      27      30       3      24      18      27      33       3
      21      18      12      36      14      21      18      27      30       3
      21      18      27      33       3      15      12      18      21      14
      15      12      18      24      14      15      12      18      27      14
      15      12      36      39       3      15      12      36      42       3
      12      36      42      45       2       9       0      12      15      14
       9       0      12      18      14       9       0      12      36      14
       6       0      12      15      14       6       0      12      18      14
       6       0      12      36      14       3       0      12      15      14
       3       0      12      18      14       3       0      12      36      14
       0      12      18      21      14       0      12      18      24      14
      69      66      72      75       1      69      66     -72      75       2
      66      72      78      81       3      63      54      48      66      14
      60      54      48      66      14      57      54      48      66      14
      51      48      54      57      14      51      48      54      60      14
      51      48      54      63      14      51      48      66      69      24
      51      48     -66      69       3      51      48     -66      69      25
      51      48      66      72       3      48      66      72      75       2
      45      42      48      51       3      45      42      48      54       3
      45      42      48      66       3      42      48      54      57      14
      42      48      54      60      14      42      48      54      63      14
     132     129     135     138       1     132     129    -135     138       2
     129     135     141     144       3     120     117     123     126      29
     114     111     108     117       7     114     111    -108     117      30
     114     111    -108     117      19     114     111    -108     117      31
     111     108     117     120      29     108     117     123     126      29
     105     102     108     111      29     105     102     108     117      29
     102     108     111     114       7     102     108    -111     114      30
     102     108    -111     114      19     102     108    -111     114      31
     102     108     117     120      29      99      96      93     123      29
      99      96     102     105      29      99      96     102     108      29
      96      93     123     126      29      93      96     102     105      29
      93     123     117     120      29      90      84      78     129      14
      90      84      93      96       3      90      84      93     123       3
      87      84      78     129      14      87      84      93      96       3
      87      84      93     123       3      84      93      96      99      29
      84      93     123     126      29      81      78      84      87      14
      81      78      84      90      14      81      78      84      93      14
      81      78     129     132      24      81      78    -129     132       3
      81      78    -129     132      25      81      78     129     135       3
      78     129     135     138       2      75      72      78      81       3
      75      72      78      84       3      75      72      78     129       3
      72      78      84      87      14      72      78      84      90      14
     162     159     165     168       1     162     159    -165     168       2
     159     165     171     174       3     156     147     141     159      14
     153     147     141     159      14     150     147     141     159      14
     144     141     147     150      14     144     141     147     153      14
     144     141     147     156      14     144     141     159     162      24
     144     141    -159     162       3     144     141    -159     162      25
     144     141     159     165       3     141     159     165     168       2
     138     135     141     144       3     138     135     141     147       3
     138     135     141     159       3     135     141     147     150      14
     135     141     147     153      14     135     141     147     156      14
     213     210     216     219       1     213     210    -216     219       2
     210     216     222     225       3     198     195     201     204       1
     198     195    -201     204       2     198     195     201     207       1
     198     195    -201     207       2     192     186     195     198      24
     192     186    -195     198       3     192     186    -195     198      25
     192     186     195     201       3     189     186     195     198      24
     189     186    -195     198       3     189     186    -195     198      25
     189     186     195     201       3     186     195     201     204       2
     186     195     201     207       2     183     177     171     210      14
     183     177     186     189      45     183     177     186     192      45
     183     177     186     195      14     180     177     171     210      14
     180     177     186     189      45     180     177     186     192      45
     180     177     186     195      14     174     171     177     180      14
     174     171     177     183      14     174     171     177     186      14
     174     171     210     213      24     174     171    -210     213       3
     174     171    -210     213      25     174     171     210     216       3
     171     177     186     189      50     171     177     186     192      50
     171     210     216     219       2     168     165     171     174       3
     168     165     171     177       3     168     165     171     210       3
     165     171     177     180      14     165     171     177     183      14
     285     282     288     291       1     285     282    -288     291       2
     282     288     294     297       3     270     267     273     276      29
     270     267     273     279      29     264     261     267     270      29
     264     261     267     273      29     261     267     273     276      29
     258     255     252     279      29     258     255     261     264      29
     258     255     261     267      29     255     261     267     270      29
     252     255     261     264      29     252     279     273     276      59
     249     246     252     255      60     249     246     252     279      60
     246     252     255     258      29     243     240     237     279      61
     243     240     246     249      62     243     240     246     252      62
     237     240     246     249      62     237     279     273     276      59
     234     228     222     282      14     234     228     237     240       3
     234     228     237     279       3     231     228     222     282      14
     231     228     237     240       3     231     228     237     279       3
     228     237     240     243      61     225     222     228     231      14
     225     222     228     234      14     225     222     228     237      14
     225     222     282     285      24     225     222    -282     285       3
     225     222    -282     285      25     225     222     282     288       3
     222     282     288     291       2     219     216     222     225       3
     219     216     222     228       3     219     216     222     282       3
     216     222     228     231      14     216     222     228     234      14
     342     339     345     348       1     342     339    -345     348       2
     339     345     351     354       3     324     315     309     327      50
     321     315     309     327      50     318     315     309     327      50
     315     309     327     330      50     315     309     327     333      50
     315     309     327     336      50     312     309     315     318      45
     312     309     315     321      45     312     309     315     324      45
     312     309     327     330      45     312     309     327     333      45
     312     309     327     336      45     306     300     294     339      14
     306     300     309     312      45     306     300     309     315      50
     306     300     309     327      50     303     300     294     339      14
     303     300     309     312      45     303     300     309     315      50
     303     300     309     327      50     300     309     315     318      50
     300     309     315     321      50     300     309     315     324      50
     300     309     327     330      50     300     309     327     333      50
     300     309     327     336      50     297     294     300     303      14
     297     294     300     306      14     297     294     300     309      14
     297     294     339     342      24     297     294    -339     342       3
     297     294    -339     342      25     297     294     339     345       3
     294     300     309     312      50     294     339     345     348       2
     291     288     294     297       3     291     288     294     300       3
     291     288     294     339       3     288     294     300     303      14
     288     294     300     306      14     372     369     375     378       1
     372     369    -375     378       2     369     375     381     384       3
     366     357     351     369      14     363     357     351     369      14
     360     357     351     369      14     354     351     357     360      14
     354     351     357     363      14     354     351     357     366      14
     354     351     369     372      24     354     351    -369     372       3
     354     351    -369     372      25     354     351     369     375       3
     351     369     375     378       2     348     345     351     354       3
     348     345     351     357       3     348     345     351     369       3
     345     351     357     360      14     345     351     357     363      14
     345     351     357     366      14     408     405     411     414       1
     408     405    -411     414       2     405     411     417     420       3
     405     411     417     423       3     393     387     381     405      14
     393     387     396     399       3     393     387     396     402       3
     390     387     381     405      14     390     387     396     399       3
     390     387     396     402       3     384     381     387     390      14
     384     381     387     393      14     384     381     387     396      14
     384     381     405     408      24     384     381    -405     408       3
     384     381    -405     408      25     384     381     405     411       3
     381     405     411     414       2     378     375     381     384       3
     378     375     381     387       3     378     375     381     405       3
     375     381     387     390      14     375     381     387     393      14
     429     426     432     435       1     429     426    -432     435       2
     426     432     438     441       3     426     432     438     444       3
     423     417     426     429      24     423     417    -426     429       3
     423     417    -426     429      25     423     417     426     432       3
     420     417     426     429      24     420     417    -426     429       3
     420     417    -426     429      25     420     417     426     432       3
     417     426     432     435       2     414     411     417     420       3
     414     411     417     423       3     414     411     417     426       3
     447     453     456     459       3     447     453     456     462       3
     447     453     483     486       3     444     438     447     450      24
     444     438    -447     450       3     444     438    -447     450      25
     444     438     447     453       3     441     438     447     450      24
     441     438    -447     450       3     441     438    -447     450      25
     441     438     447     453       3     435     432     438     441       3
     435     432     438     444       3     435     432     438     447       3
     492     489     495     498       1     492     489    -495     498       2
     489     495     501     504       3     486     483     489     492      24
     486     483    -489     492       3     486     483    -489     492      25
     486     483     489     495       3     483     489     495     498       2
     480     474     483     486      14     480     474     483     489      14
     477     474     483     486      14     477     474     483     489      14
     471     465     474     477      45     471     465     474     480      45
     471     465     474     483      50     468     465     474     477      45
     468     465     474     480      45     468     465     474     483      50
     465     474     483     486      14     462     456     453     483       3
     462     456     465     468      14     462     456     465     471      14
     462     456     465     474      14     459     456     453     483       3
     459     456     465     468      14     459     456     465     471      14
     459     456     465     474      14     456     453     483     486       3
     456     465     474     477      50     456     465     474     480      50
     453     456     465     468      14     453     456     465     471      14
     453     483     474     477      14     453     483     474     480      14
     525     522     528     531       1     525     522    -528     531       2
     522     528     534     537       3     513     507     501     522      14
     513     507     516     519      93     510     507     501     522      14
     510     507     516     519      93     504     501     507     510      14
     504     501     507     513      14     504     501     507     516      94
     504     501    -507     516      19     504     501     522     525      24
     504     501    -522     525       3     504     501    -522     525      25
     504     501     522     528       3     501     507     516     519      95
     501     507    -516     519      96     501     507    -516     519      97
     501     507    -516     519      98     501     522     528     531       2
     498     495     501     504       3     498     495     501     507       3
     498     495     501     522       3     495     501     507     510      14
     495     501     507     513      14     558     555     561     564       1
     558     555    -561     564       2     555     561     567     570       3
     555     561     567     573       3     546     540     534     555      14
     546     540     549     552      93     543     540     534     555      14
     543     540     549     552      93     537     534     540     543      14
     537     534     540     546      14     537     534     540     549      94
     537     534    -540     549      19     537     534     555     558      24
     537     534    -555     558       3     537     534    -555     558      25
     537     534     555     561       3     534     540     549     552      95
     534     540    -549     552      96     534     540    -549     552      97
     534     540    -549     552      98     534     555     561     564       2
     531     528     534     537       3     531     528     534     540       3
     531     528     534     555       3     528     534     540     543      14
     528     534     540     546      14     579     576     582     585       1
     579     576    -582     585       2     576     582     588     591       3
     573     567     576     579      24     573     567    -576     579       3
     573     567    -576     579      25     573     567     576     582       3
     570     567     576     579      24     570     567    -576     579       3
     570     567    -576     579      25     570     567     576     582       3
     567     576     582     585       2     564     561     567     570       3
     564     561     567     573       3     564     561     567     576       3
     648     654     657     660       3     648     654     657     663       3
     648     654     684     687       3     636     630     627     639     102
     636     630    -627     639       6     633     630     627     639     102
     633     630    -627     639       6     630     627     639     642     102
     630     627    -639     642       6     630     627     639     645     102
     630     627    -639     645       6     624     621     627     630     102
     624     621    -627     630       6     624     621     627     639     102
     624     621    -627     639       6     621     627     630     633     102
     621     627    -630     633       6     621     627     630     636     102
     621     627    -630     636       6     621     627     639     642     102
     621     627    -639     642       6     621     627     639     645     102
     621     627    -639     645       6     618     612     621     624      19
     618     612     621     627      19     615     612     621     624      19
     615     612     621     627      19     609     603     612     615      14
     609     603     612     618      14     609     603     612     621      14
     606     603     612     615      14     606     603     612     618      14
     606     603     612     621      14     603     612     621     624      19
     600     594     588     648      14     600     594     603     606      45
     600     594     603     609      45     600     594     603     612      50
     597     594     588     648      14     597     594     603     606      45
     597     594     603     609      45     597     594     603     612      50
     594     603     612     615      14     594     603     612     618      14
     591     588     594     597      14     591     588     594     600      14
     591     588     594     603      14     591     588     648     651      24
     591     588    -648     651       3     591     588    -648     651      25
     591     588     648     654       3     588     594     603     606      50
     588     594     603     609      50     585     582     588     591       3
     585     582     588     594       3     585     582     588     648       3
     582     588     594     597      14     582     588     594     600      14
     690     696     699     702       3     690     696     699     705       3
     690     696     726     729       3     687     684     690     693      24
     687     684    -690     693       3     687     684    -690     693      25
     687     684     690     696       3     681     675     684     687      14
     681     675     684     690      14     678     675     684     687      14
     678     675     684     690      14     672     666     675     678      45
     672     666     675     681      45     672     666     675     684      50
     669     666     675     678      45     669     666     675     681      45
     669     666     675     684      50     666     675     684     687      14
     663     657     654     684       3     663     657     666     669      14
     663     657     666     672      14     663     657     666     675      14
     660     657     654     684       3     660     657     666     669      14
     660     657     666     672      14     660     657     666     675      14
     657     654     684     687       3     657     666     675     678      50
     657     666     675     681      50     654     657     666     669      14
     654     657     666     672      14     654     684     675     678      14
     654     684     675     681      14     732     738     741     744       3
     732     738     741     747       3     732     738     768     771       3
     729     726     732     735      24     729     726    -732     735       3
     729     726    -732     735      25     729     726     732     738       3
     723     717     726     729      14     723     717     726     732      14
     720     717     726     729      14     720     717     726     732      14
     714     708     717     720      45     714     708     717     723      45
     714     708     717     726      50     711     708     717     720      45
     711     708     717     723      45     711     708     717     726      50
     708     717     726     729      14     705     699     696     726       3
     705     699     708     711      14     705     699     708     714      14
     705     699     708     717      14     702     699     696     726       3
     702     699     708     711      14     702     699     708     714      14
     702     699     708     717      14     699     696     726     729       3
     699     708     717     720      50     699     708     717     723      50
     696     699     708     711      14     696     699     708     714      14
     696     726     717     720      14     696     726     717     723      14
     777     774     780     783       1     777     774    -780     783       2
     774     780     786     789       3     771     768     774     777      24
     771     768    -774     777       3     771     768    -774     777      25
     771     768     774     780       3     768     774     780     783       2
     765     759     768     771      14     765     759     768     774      14
     762     759     768     771      14     762     759     768     774      14
     756     750     759     762      45     756     750     759     765      45
     756     750     759     768      50     753     750     759     762      45
     753     750     759     765      45     753     750     759     768      50
     750     759     768     771      14     747     741     738     768       3
     747     741     750     753      14     747     741     750     756      14
     747     741     750     759      14     744     741     738     768       3
     744     741     750     753      14     744     741     750     756      14
     744     741     750     759      14     741     738     768     771       3
     741     750     759     762      50     741     750     759     765      50
     738     741     750     753      14     738     741     750     756      14
     738     768     759     762      14     738     768     759     765      14
     798     792     786     807      14     798     792     801     804      93
     795     792     786     807      14     795     792     801     804      93
     789     786     792     795      14     789     786     792     798      14
     789     786     792     801      94     789     786    -792     801      19
     789     786     807     810       3     789     786     807     813       3
     786     792     801     804      95     786     792    -801     804      96
     786     792    -801     804      97     786     792    -801     804      98
     783     780     786     789       3     783     780     786     792       3
     783     780     786     807       3     780     786     792     795      14
     780     786     792     798      14      36      48     -42     -45     104
      93     117    -123    -126     104     108     123    -117    -120     104
      96     108    -102    -105     104      93     102     -96     -99     104
      66      78     -72     -75     104     129     141    -135    -138     104
     195     204    -201    -207     105     159     171    -165    -168     104
     267     279    -273    -276     104     261     273    -267    -270     104
     255     267    -261    -264     104     252     261    -255    -258     104
     240     252    -246    -249     105     237     246    -240    -243     104
     210     222    -216    -219     104     282     294    -288    -291     104
     339     351    -345    -348     104     369     381    -375    -378     104
     405     417    -411    -414     104     426     438    -432    -435     104
     489     501    -495    -498     104     522     534    -528    -531     104
     555     567    -561    -564     104     627     642    -639    -645     105
     627     633    -630    -636     105     612     627    -621    -624     105
     576     588    -582    -585     104     774     786    -780    -783     104
%FLAG DIHEDRALS_WITHOUT_HYDROGEN                                                
%FORMAT(10I8)                                                                   
      39      36      42      48       2      36      42      48      54       1
      36      42     -48      54       4      36      42     -48      54       5
      36      42     -48      54       6      36      42      48      66       7
      36      42     -48      66       8      36      42     -48      66       9
      36      42     -48      66       6      27      18      12      36      10
      27      18     -12      36      11      27      18     -12      36      12
      27      18     -12      36      13      18      12      36      39       3
      18      12      36      42      15      18      12     -36      42      16
      18      12     -36      42      17      18      12     -36      42       6
      12      18      27      30       7      12      18     -27      30      18
      12      18     -27      30      19      12      18     -27      30      20
      12      18      27      33       7      12      18     -27      33      18
      12      18     -27      33      19      12      18     -27      33      20
      12      36      42      48       2       0      12      18      27      21
       0      12     -18      27      22       0      12     -18      27      12
       0      12     -18      27      23       0      12      36      39       3
       0      12      36      42       3      69      66      72      78       2
      66      72      78      84       1      66      72     -78      84       4
      66      72     -78      84       5      66      72     -78      84       6
      66      72      78     129       7      66      72     -78     129       8
      66      72     -78     129       9      66      72     -78     129       6
      54      48      66      69       3      54      48      66      72      15
      54      48     -66      72      16      54      48     -66      72      17
      54      48     -66      72       6      48      66      72      78       2
      42      48      66      69       3      42      48      66      72      26
      42      48     -66      72      27      42      48     -66      72      28
      42      48     -66      72       6     132     129     135     141       2
     129     135     141     147       1     129     135    -141     147       4
     129     135    -141     147       5     129     135    -141     147       6
     129     135     141     159       7     129     135    -141     159       8
     129     135    -141     159       9     129     135    -141     159       6
     111     108     117     123      29     102      96      93     123      29
     102     108    -117     123      29      96      93     123     117      29
      96     102     108     111      29      96     102    -108     117      29
      93      84      78     129      32      93      84     -78     129      33
      93      84     -78     129      34      93      84     -78     129      35
      93      96     102     108      29      93     123    -117     108      29
      84      78     129     132       3      84      78     129     135      15
      84      78    -129     135      16      84      78    -129     135      17
      84      78    -129     135       6      84      93      96     102      29
      84      93     123     117      29      78      84      93      96       7
      78      84     -93      96      36      78      84     -93      96      19
      78      84     -93      96      37      78      84      93     123       7
      78      84     -93     123      36      78      84     -93     123      19
      78      84     -93     123      37      78     129     135     141       2
      72      78      84      93      38      72      78     -84      93      39
      72      78     -84      93      34      72      78     -84      93      40
      72      78     129     132       3      72      78     129     135      26
      72      78    -129     135      27      72      78    -129     135      28
      72      78    -129     135       6     162     159     165     171       2
     159     165     171     177       1     159     165    -171     177       4
     159     165    -171     177       5     159     165    -171     177       6
     159     165     171     210       7     159     165    -171     210       8
     159     165    -171     210       9     159     165    -171     210       6
     147     141     159     162       3     147     141     159     165      15
     147     141    -159     165      16     147     141    -159     165      17
     147     141    -159     165       6     141     159     165     171       2
     135     141     159     162       3     135     141     159     165      26
     135     141    -159     165      27     135     141    -159     165      28
     135     141    -159     165       6     213     210     216     222       2
     210     216     222     228       1     210     216    -222     228       4
     210     216    -222     228       5     210     216    -222     228       6
     210     216     222     282       7     210     216    -222     282       8
     210     216    -222     282       9     210     216    -222     282       6
     186     177     171     210      41     186     177    -171     210      42
     186     177    -171     210      43     186     177    -171     210      44
     177     171     210     213       3     177     171     210     216      15
     177     171    -210     216      16     177     171    -210     216      17
     177     171    -210     216       6     177     186     195     198       7
     177     186     195     201      46     177     186    -195     201      47
     177     186    -195     201      48     177     186    -195     201      49
     171     177     186     195      51     171     177    -186     195      52
     171     177    -186     195      53     171     177    -186     195      54
     171     210     216     222       2     165     171     177     186      55
     165     171    -177     186      56     165     171    -177     186      43
     165     171    -177     186      57     165     171     210     213       3
     165     171     210     216      26     165     171    -210     216      27
     165     171    -210     216      28     165     171    -210     216       6
     285     282     288     294       2     282     288     294     300       1
     282     288    -294     300       4     282     288    -294     300       5
     282     288    -294     300       6     282     288     294     339       7
     282     288    -294     339       8     282     288    -294     339       9
     282     288    -294     339       6     261     255     252     279      29
     261     267    -273     279      29     255     252     279     273      58
     255     261    -267     273      29     252     255     261     267      29
     252     279    -273     267      59     246     240    -237     279      61
     246     252     255     261      29     246     252     279     273      58
     240     237    -279     252      63     240     237     279     273      63
     240     246     252     255      60     240     246    -252     279      60
     237     228     222     282      64     237     228    -222     282      65
     237     228    -222     282      66     237     228    -222     282      67
     237     240    -246     252      62     237     279    -252     246      58
     237     279     252     255      58     237     279     273     267      59
     228     222     282     285       3     228     222     282     288      15
     228     222    -282     288      16     228     222    -282     288      17
     228     222    -282     288       6     228     237     240     246      61
     228     237     279     252      63     228     237     279     273      63
     222     228     237     240       7     222     228    -237     240       3
     222     228    -237     240      19     222     228    -237     240       6
     222     228     237     279      68     222     228    -237     279      69
     222     228    -237     279      70     222     228    -237     279      71
     222     282     288     294       2     216     222     228     237      72
     216     222    -228     237      73     216     222    -228     237      66
     216     222    -228     237      74     216     222     282     285       3
     216     222     282     288      26     216     222    -282     288      27
     216     222    -282     288      28     216     222    -282     288       6
     342     339     345     351       2     339     345     351     357       1
     339     345    -351     357       4     339     345    -351     357       5
     339     345    -351     357       6     339     345     351     369       7
     339     345    -351     369       8     339     345    -351     369       9
     339     345    -351     369       6     309     300     294     339      75
     309     300    -294     339      76     309     300    -294     339      43
     309     300    -294     339      77     300     294     339     342       3
     300     294     339     345      15     300     294    -339     345      16
     300     294    -339     345      17     300     294    -339     345       6
     294     300     309     315      78     294     300    -309     315      79
     294     300    -309     315      80     294     300    -309     315      81
     294     300     309     327      78     294     300    -309     327      79
     294     300    -309     327      80     294     300    -309     327      81
     294     339     345     351       2     288     294     300     309      82
     288     294    -300     309      83     288     294    -300     309      43
     288     294    -300     309      84     288     294     339     342       3
     288     294     339     345      26     288     294    -339     345      27
     288     294    -339     345      28     288     294    -339     345       6
     372     369     375     381       2     369     375     381     387       1
     369     375    -381     387       4     369     375    -381     387       5
     369     375    -381     387       6     369     375     381     405       7
     369     375    -381     405       8     369     375    -381     405       9
     369     375    -381     405       6     357     351     369     372       3
     357     351     369     375      15     357     351    -369     375      16
     357     351    -369     375      17     357     351    -369     375       6
     351     369     375     381       2     345     351     369     372       3
     345     351     369     375      26     345     351    -369     375      27
     345     351    -369     375      28     345     351    -369     375       6
     408     405     411     417       2     405     411     417     426       7
     405     411    -417     426       8     405     411    -417     426       9
     405     411    -417     426       6     396     387     381     405      10
     396     387    -381     405      11     396     387    -381     405      12
     396     387    -381     405      13     387     381     405     408       3
     387     381     405     411      15     387     381    -405     411      16
     387     381    -405     411      17     387     381    -405     411       6
     381     387     396     399       7     381     387    -396     399      18
     381     387    -396     399      19     381     387    -396     399      20
     381     387     396     402       7     381     387    -396     402      18
     381     387    -396     402      19     381     387    -396     402      20
     381     405     411     417       2     375     381     387     396      21
     375     381    -387     396      22     375     381    -387     396      12
     375     381    -387     396      23     375     381     405     408       3
     375     381     405     411      26     375     381    -405     411      27
     375     381    -405     411      28     375     381    -405     411       6
     429     426     432     438       2     426     432     438     447       7
     426     432    -438     447       8     426     432    -438     447       9
     426     432    -438     447       6     417     426     432     438       2
     411     417     426     429       3     411     417     426     432      26
     411     417    -426     432      27     411     417    -426     432      28
     411     417    -426     432       6     450     447     453     456       2
     450     447     453     483       2     447     453     456     465       1
     447     453    -456     465      85     447     453    -456     465      17
     447     453    -456     465       6     447     453     483     474       1
     447     453    -483     474       4     447     453    -483     474       5
     447     453    -483     474       6     447     453     483     489       7
     447     453    -483     489       8     447     453    -483     489       9
     447     453    -483     489       6     438     447     453     456       2
     438     447     453     483       2     432     438     447     450       3
     432     438     447     453      26     432     438    -447     453      27
     432     438    -447     453      28     432     438    -447     453       6
     492     489     495     501       2     489     495     501     507       1
     489     495    -501     507       4     489     495    -501     507       5
     489     495    -501     507       6     489     495     501     522       7
     489     495    -501     522       8     489     495    -501     522       9
     489     495    -501     522       6     483     489     495     501       2
     474     483     489     492       3     474     483     489     495      15
     474     483    -489     495      16     474     483    -489     495      17
     474     483    -489     495       6     465     456    -453     483       3
     465     474     483     489      14     456     453    -483     474       3
     456     453     483     489       3     456     465    -474     483      86
     456     465    -474     483      87     456     465    -474     483      88
     453     456    -465     474      14     453     483    -474     465      14
     453     483     489     492       3     453     483     489     495      26
     453     483    -489     495      27     453     483    -489     495      28
     453     483    -489     495       6     525     522     528     534       2
     522     528     534     540       1     522     528    -534     540       4
     522     528    -534     540       5     522     528    -534     540       6
     522     528     534     555       7     522     528    -534     555       8
     522     528    -534     555       9     522     528    -534     555       6
     516     507     501     522      89     516     507    -501     522      90
     516     507    -501     522      91     516     507    -501     522      92
     507     501     522     525       3     507     501     522     528      15
     507     501    -522     528      16     507     501    -522     528      17
     507     501    -522     528       6     501     522     528     534       2
     495     501     507     516      99     495     501    -507     516     100
     495     501    -507     516      91     495     501    -507     516     101
     495     501     522     525       3     495     501     522     528      26
     495     501    -522     528      27     495     501    -522     528      28
     495     501    -522     528       6     558     555     561     567       2
     555     561     567     576       7     555     561    -567     576       8
     555     561    -567     576       9     555     561    -567     576       6
     549     540     534     555      89     549     540    -534     555      90
     549     540    -534     555      91     549     540    -534     555      92
     540     534     555     558       3     540     534     555     561      15
     540     534    -555     561      16     540     534    -555     561      17
     540     534    -555     561       6     534     555     561     567       2
     528     534     540     549      99     528     534    -540     549     100
     528     534    -540     549      91     528     534    -540     549     101
     528     534     555     558       3     528     534     555     561      26
     528     534    -555     561      27     528     534    -555     561      28
     528     534    -555     561       6     579     576     582     588       2
     576     582     588     594       1     576     582    -588     594       4
     576     582    -588     594       5     576     582    -588     594       6
     576     582     588     648       7     576     582    -588     648       8
     576     582    -588     648       9     576     582    -588     648       6
     567     576     582     588       2     561     567     576     579       3
     561     567     576     582      26     561     567    -576     582      27
     561     567    -576     582      28     561     567    -576     582       6
     651     648     654     657       2     651     648     654     684       2
     648     654     657     666       1     648     654    -657     666      85
     648     654    -657     666      17     648     654    -657     666       6
     648     654     684     675       1     648     654    -684     675       4
     648     654    -684     675       5     648     654    -684     675       6
     648     654     684     690       7     648     654    -684     690       8
     648     654    -684     690       9     648     654    -684     690       6
     612     621     627     630     102     612     621    -627     630       6
     612     621     627     639     102     612     621    -627     639       6
     603     594     588     648      14     603     612     621     627       7
     603     612    -621     627      19     594     588     648     651       3
     594     588     648     654      15     594     588    -648     654      16
     594     588    -648     654      17     594     588    -648     654       6
     594     603     612     621      14     588     594     603     612      86
     588     594    -603     612      87     588     594    -603     612      88
     588     648     654     657       2     588     648     654     684       2
     582     588     594     603      14     582     588     648     651       3
     582     588     648     654      26     582     588    -648     654      27
     582     588    -648     654      28     582     588    -648     654       6
     693     690     696     699       2     693     690     696     726       2
     690     696     699     708       1     690     696    -699     708      85
     690     696    -699     708      17     690     696    -699     708       6
     690     696     726     717       1     690     696    -726     717       4
     690     696    -726     717       5     690     696    -726     717       6
     690     696     726     732       7     690     696    -726     732       8
     690     696    -726     732       9     690     696    -726     732       6
     684     690     696     699       2     684     690     696     726       2
     675     684     690     693       3     675     684     690     696      15
     675     684    -690     696      16     675     684    -690     696      17
     675     684    -690     696       6     666     657    -654     684       3
     666     675     684     690      14     657     654    -684     675       3
     657     654     684     690       3     657     666    -675     684      86
     657     666    -675     684      87     657     666    -675     684      88
     654     657    -666     675      14     654     684    -675     666      14
     654     684     690     693       3     654     684     690     696      26
     654     684    -690     696      27     654     684    -690     696      28
     654     684    -690     696       6     735     732     738     741       2
     735     732     738     768       2     732     738     741     750       1
     732     738    -741     750      85     732     738    -741     750      17
     732     738    -741     750       6     732     738     768     759       1
     732     738    -768     759       4     732     738    -768     759       5
     732     738    -768     759       6     732     738     768     774       7
     732     738    -768     774       8     732     738    -768     774       9
     732     738    -768     774       6     726     732     738     741       2
     726     732     738     768       2     717     726     732     735       3
     717     726     732     738      15     717     726    -732     738      16
     717     726    -732     738      17     717     726    -732     738       6
     708     699    -696     726       3     708     717     726     732      14
     699     696    -726     717       3     699     696     726     732       3
     699     708    -717     726      86     699     708    -717     726      87
     699     708    -717     726      88     696     699    -708     717      14
     696     726    -717     708      14     696     726     732     735       3
     696     726     732     738      26     696     726    -732     738      27
     696     726    -732     738      28     696     726    -732     738       6
     777     774     780     786       2     774     780     786     792       1
     774     780    -786     792       4     774     780    -786     792       5
     774     780    -786     792       6     774     780     786     807       7
     774     780    -786     807       8     774     780    -786     807       9
     774     780    -786     807       6     768     774     780     786       2
     759     768     774     777       3     759     768     774     780      15
     759     768    -774     780      16     759     768    -774     780      17
     759     768    -774     780       6     750     741    -738     768       3
     750     759     768     774      14     741     738    -768     759       3
     741     738     768     774       3     741     750    -759     768      86
     741     750    -759     768      87     741     750    -759     768      88
     738     741    -750     759      14     738     768    -759     750      14
     738     768     774     777       3     738     768     774     780      26
     738     768    -774     780      27     738     768    -774     780      28
     738     768    -774     780       6     801     792     786     807      89
     801     792    -786     807      90     801     792    -786     807      91
     801     792    -786     807      92     792     786     807     810       3
     792     786     807     813       3     780     786     792     801      99
     780     786    -792     801     100     780     786    -792     801      91
     780     786    -792     801     101     780     786     807     810       3
     780     786     807     813       3      12      42     -36     -39     103
      18      30     -27     -33     103      48      72     -66     -69     103
      78     135    -129    -132     103     102     117    -108    -111     104
      96     123     -93     -84     104     141     165    -159    -162     103
     171     216    -210    -213     103     186     201    -195    -198     103
     222     288    -282    -285     103     237     252    -279    -273     106
     246     255    -252    -279     106     279     228    -237    -240     104
     294     345    -339    -342     103     351     375    -369    -372     103
     381     411    -405    -408     103     387     399    -396    -402     103
     417     432    -426    -429     103     438     453    -447    -450     103
     483     495    -489    -492     103     447     456    -453    -483     105
     501     528    -522    -525     103     534     561    -555    -558     103
     567     582    -576    -579     103     588     654    -648    -651     103
     621     630    -627    -639     103     684     696    -690    -693     103
     648     657    -654    -684     105     726     738    -732    -735     103
     690     699    -696    -726     105     768     780    -774    -777     103
     732     741    -738    -768     105     786     810    -807    -813     103
%FLAG EXCLUDED_ATOMS_LIST                                                       
%FORMAT(10I8)                                                                   
       2       3       4       5       6       7       8       9      10      13
      14      15       3       4       5       6       7      13       4       5
       6       7      13       5       6       7      13       6       7       8
       9      10      11      12      13      14      15      16      17       7
       8       9      10      13      14      15       8       9      10      11
      12      13      14      15       9      10      11      12      13      10
      11      12      13      11      12      13      12       0      14      15
      16      17      18      19      23      15      16      17      16      17
      18      19      20      21      22      23      24      25      17      18
      19      23      18      19      20      21      22      23      24      25
      26      27      19      20      21      22      23      24      25      20
      21      22      23      24      25      21      22      23      22      23
      23      24      25      26      27      28      29      44      25      26
      27      26      27      28      29      30      31      32      44      45
      46      27      28      29      44      28      29      30      31      32
      33      42      44      45      46      47      48      29      30      31
      32      44      45      46      30      31      32      33      34      35
      40      42      43      44      45      46      31      32      33      42
      44      32      33      42      44      33      34      35      36      37
      40      41      42      43      44      34      35      36      37      38
      40      42      43      35      36      37      42      36      37      38
      39      40      41      42      37      38      40      38      39      40
      41      42      43      39      40      41      42      40      41      42
      43      42      43      43       0      45      46      47      48      49
      50      54      46      47      48      47      48      49      50      51
      52      53      54      55      56      48      49      50      54      49
      50      51      52      53      54      55      56      57      58      50
      51      52      53      54      55      56      51      52      53      54
      55      56      52      53      54      53      54      54      55      56
      57      58      59      60      71      56      57      58      57      58
      59      60      61      62      63      71      72      73      58      59
      60      71      59      60      61      62      63      64      65      66
      71      72      73      74      75      60      61      62      63      71
      72      73      61      62      63      64      65      66      67      68
      71      72      73      62      63      64      65      66      71      63
      64      65      66      71      64      65      66      67      68      69
      70      71      65      66      67      68      66      67      68      67
      68      69      70      68      69      70      69      70      70       0
      72      73      74      75      76      77      95      73      74      75
      74      75      76      77      78      79      80      95      96      97
      75      76      77      95      76      77      78      79      80      81
      94      95      96      97      98      99      77      78      79      80
      95      96      97      78      79      80      81      82      83      85
      92      94      95      96      97      79      80      81      94      95
      80      81      94      95      81      82      83      84      85      86
      90      92      93      94      95      82      83      84      85      86
      92      94      83      84      85      94      84      85      86      87
      88      92      94      85      86      94      86      87      88      89
      90      92      93      94      87      88      89      90      91      92
      94      88      89      90      94      89      90      91      92      93
      94      90      91      92      91      92      93      94      92      93
      94      93      94      94       0      96      97      98      99     100
     101     114      97      98      99      98      99     100     101     102
     103     104     114     115     116      99     100     101     114     100
     101     102     103     104     105     106     110     114     115     116
     117     118     101     102     103     104     114     115     116     102
     103     104     105     106     107     108     109     110     111     112
     113     114     115     116     103     104     105     106     110     114
     104     105     106     110     114     105     106     107     108     109
     110     111     112     113     114     106     107     108     109     110
     111     112     113     107     108     109     110     111     112     113
     108     109     110     109     110     110     111     112     113     112
     113     113       0     115     116     117     118     119     120     124
     116     117     118     117     118     119     120     121     122     123
     124     125     126     118     119     120     124     119     120     121
     122     123     124     125     126     127     128     120     121     122
     123     124     125     126     121     122     123     124     125     126
     122     123     124     123     124     124     125     126     127     128
     129     130     136     126     127     128     127     128     129     130
     131     132     133     136     137     138     128     129     130     136
     129     130     131     132     133     134     135     136     137     138
     139     140     130     131     132     133     136     137     138     131
     132     133     134     135     136     137     138     132     133     134
     135     136     133     134     135     136     134     135     136     135
       0     137     138     139     140     141     142     143     138     139
     140     139     140     141     142     143     144     145     140     141
     142     143     141     142     143     144     145     146     147     142
     143     144     145     143     144     145     144     145     146     147
     148     149     150     145     146     147     146     147     148     149
     150     151     152     147     148     149     150     148     149     150
     151     152     153     162     149     150     151     152     150     151
     152     151     152     153     154     155     156     159     162     163
     164     152     153     162     153     154     155     156     157     158
     159     160     161     162     163     164     165     166     154     155
     156     157     158     159     160     161     162     163     164     155
     156     157     158     159     162     156     157     158     159     162
     157     158     159     160     161     162     163     164     158     159
     160     161     162     159     160     161     162     160     161     162
     163     164     165     166     161     162     163     164     162     163
     164     163     164     165     166     167     168     164     165     166
     165     166     167     168     169     170     175     166     167     168
     167     168     169     170     171     172     173     175     176     177
     168     169     170     175     169     170     171     172     173     174
     175     176     177     178     179     170     171     172     173     175
     176     177     171     172     173     174     175     176     177     172
     173     174     175     173     174     175     174     175       0     176
     177     178     179     180     181     186     177     178     179     178
     179     180     181     182     183     184     186     187     188     179
     180     181     186     180     181     182     183     184     185     186
     187     188     189     190     181     182     183     184     186     187
     188     182     183     184     185     186     187     188     183     184
     185     186     184     185     186     185     186       0     187     188
     189     190     191     192     193     188     189     190     189     190
     191     192     193     194     195     190     191     192     193     191
     192     193     194     195     196     197     192     193     194     195
     193     194     195     194     195     196     197     198     199     217
     195     196     197     196     197     198     199     200     201     202
     217     218     219     197     198     199     217     198     199     200
     201     202     203     204     205     217     218     219     220     229
     199     200     201     202     217     218     219     200     201     202
     203     204     205     206     207     208     217     218     219     201
     202     203     204     205     217     202     203     204     205     217
     203     204     205     206     207     208     209     210     217     204
     205     206     207     208     205     206     207     208     206     207
     208     209     210     211     214     207     208     209     210     208
     209     210     209     210     211     212     213     214     215     216
     210     211     214     211     212     213     214     215     216     212
     213     214     215     216     213     214     214     215     216     216
       0     218     219     220     221     222     223     226     229     230
     231     219     220     229     220     221     222     223     224     225
     226     227     228     229     230     231     232     233     221     222
     223     224     225     226     227     228     229     230     231     222
     223     224     225     226     229     223     224     225     226     229
     224     225     226     227     228     229     230     231     225     226
     227     228     229     226     227     228     229     227     228     229
     230     231     232     233     228     229     230     231     229     230
     231     230     231     232     233     234     243     231     232     233
     232     233     234     235     236     237     240     243     244     245
     233     234     243     234     235     236     237     238     239     240
     241     242     243     244     245     246     247     235     236     237
     238     239     240     241     242     243     244     245     236     237
     238     239     240     243     237     238     239     240     243     238
     239     240     241     242     243     244     245     239     240     241
     242     243     240     241     242     243     241     242     243     244
     245     246     247     242     243     244     245     243     244     245
     244     245     246     247     248     257     245     246     247     246
     247     248     249     250     251     254     257     258     259     247
     248     257     248     249     250     251     252     253     254     255
     256     257     258     259     260     261     249     250     251     252
     253     254     255     256     257     258     259     250     251     252
     253     254     257     251     252     253     254     257     252     253
     254     255     256     257     258     259     253     254     255     256
     257     254     255     256     257     255     256     257     258     259
     260     261     256     257     258     259     257     258     259     258
     259     260     261     262     263     259     260     261     260     261
     262     263     264     265     270     261     262     263     262     263
     264     265     266     267     268     270     271     272     263     264
     265     270     264     265     266     267     268     269     270     271
     272     265     266     267     268     270     271     272     266     267
     268     269     270     271     272     267     268     269     270     268
     269     270     269     270       0     271     272     272       0
%FLAG HBOND_ACOEF                                                               
%FORMAT(5E16.8)                                                                 

%FLAG HBOND_BCOEF                                                               
%FORMAT(5E16.8)                                                                 

%FLAG HBCUT                                                                     
%FORMAT(5E16.8)                                                                 

%FLAG AMBER_ATOM_TYPE                                                           
%FORMAT(20a4)                                                                   
N3  H   H   H   CX  HP  2C  HC  HC  CO  O2  O2  C   O   N   H   CX  H1  CT  HC  
HC  HC  C   O   N   H   CX  H1  CT  HC  HC  CA  CA  HA  CA  HA  C   OH  HO  CA  
HA  CA  HA  C   O   N   H   CX  H1  CT  HC  HC  HC  C   O   N   H   CX  H1  2C  
HC  HC  2C  HC  HC  C   O   N   H   H   C   O   N   H   CX  H1  CT  HC  HC  C*  
CW  H4  NA  H   CN  CA  HA  CA  HA  CA  HA  CA  HA  CB  C   O   N   H   CX  H1  
2C  HC  HC  3C  HC  CT  HC  HC  HC  CT  HC  HC  HC  C   O   N   H   CX  H1  CT  
HC  HC  HC  C   O   N   H   CX  H1  2C  HC  HC  CO  O2  O2  C   O   N   H   CX  
H1  H1  C   O   N   H   CX  H1  H1  C   O   N   CT  H1  H1  CT  HC  HC  CT  HC  
HC  CX  H1  C   O   N   H   CX  H1  2C  H1  H1  OH  HO  C   O   N   H   CX  H1  
2C  H1  H1  OH  HO  C   O   N   H   CX  H1  H1  C   O   N   H   CX  H1  C8  HC  
HC  C8  HC  HC  C8  H1  H1  N2  H   CA  N2  H   H   N2  H   H   C   O   N   CT  
H1  H1  CT  HC  HC  CT  HC  HC  CX  H1  C   O   N   CT  H1  H1  CT  HC  HC  CT  
HC  HC  CX  H1  C   O   N   CT  H1  H1  CT  HC  HC  CT  HC  HC  CX  H1  C   O   
N   H   CX  H1  2C  H1  H1  OH  HO  C   O2  O2  
%FLAG TREE_CHAIN_CLASSIFICATION                                                 
%FORMAT(20a4)                                                                   
BLA BLA BLA BLA BLA BLA BLA BLA BLA BLA BLA BLA BLA BLA M   E   M   E   3   E   
E   E   M   E   M   E   M   E   3   E   E   B   B   E   B   E   B   S   E   S   
E   S   E   M   E   M   E   M   E   3   E   E   E   M   E   M   E   M   E   3   
E   E   3   E   E   B   E   B   E   E   M   E   M   E   M   E   3   E   E   B   
B   E   B   E   S   B   E   B   E   B   E   S   E   E   M   E   M   E   M   E   
3   E   E   3   E   3   E   E   E   3   E   E   E   M   E   M   E   M   E   3   
E   E   E   M   E   M   E   M   E   3   E   E   B   E   E   M   E   M   E   M   
E   E   M   E   M   E   M   E   E   M   E   M   3   E   E   3   E   E   B   E   
E   M   E   M   E   M   E   M   E   3   E   E   S   E   M   E   M   E   M   E   
3   E   E   S   E   M   E   M   E   M   E   E   M   E   M   E   M   E   3   E   
E   3   E   E   3   E   E   B   E   B   B   E   E   B   E   E   M   E   M   3   
E   E   3   E   E   B   E   E   M   E   M   E   M   3   E   E   3   E   E   B   
E   E   M   E   M   E   M   3   E   E   3   E   E   B   E   E   M   E   M   E   
BLA BLA BLA BLA BLA BLA BLA BLA BLA BLA BLA BLA 
%FLAG JOIN_ARRAY                                                                
%FORMAT(10I8)                                                                   
       0       0       0       0       0       0       0       0       0       0
       0       0       0       0       0       0       0       0       0       0
       0       0       0       0       0       0       0       0       0       0
       0       0       0       0       0       0       0       0       0       0
       0       0       0       0       0       0       0       0       0       0
       0       0       0       0       0       0       0       0       0       0
       0       0       0       0       0       0       0       0       0       0
       0       0       0       0       0       0       0       0       0       0
       0       0       0       0       0       0       0       0       0       0
       0       0       0       0       0       0       0       0       0       0
       0       0       0       0       0       0       0       0       0       0
       0       0       0       0       0       0       0       0       0       0
       0       0       0       0       0       0       0       0       0       0
       0       0       0       0       0       0       0       0       0       0
       0       0       0       0       0       0       0       0       0       0
       0       0       0       0       0       0       0       0       0       0
       0       0       0       0       0       0       0       0       0       0
       0       0       0       0       0       0       0       0       0       0
       0       0       0       0       0       0       0       0       0       0
       0       0       0       0       0       0       0       0       0       0
       0       0       0       0       0       0       0       0       0       0
       0       0       0       0       0       0       0       0       0       0
       0       0       0       0       0       0       0       0       0       0
       0       0       0       0       0       0       0       0       0       0
       0       0       0       0       0       0       0       0       0       0
       0       0       0       0       0       0       0       0       0       0
       0       0       0       0       0       0       0       0       0       0
       0       0
%FLAG IROTAT                                                                    
%FORMAT(10I8)                                                                   
       0       0       0       0       0       0       0       0       0       0
       0       0       0       0       0       0       0       0       0       0
       0       0       0       0       0       0       0       0       0       0
       0       0       0       0       0       0       0       0       0       0
       0       0       0       0       0       0       0       0       0       0
       0       0       0       0       0       0       0       0       0       0
       0       0       0       0       0       0       0       0       0       0
       0       0       0       0       0       0       0       0       0       0
       0       0       0       0       0       0       0       0       0       0
       0       0       0       0       0       0       0       0       0       0
       0       0       0       0       0       0       0       0       0       0
       0       0       0       0       0       0       0       0       0       0
       0       0       0       0       0       0       0       0       0       0
       0       0       0       0       0       0       0       0       0       0
       0       0       0       0       0       0       0       0       0       0
       0       0       0       0       0       0       0       0       0       0
       0       0       0       0       0       0       0       0       0       0
       0       0       0       0       0       0       0       0       0       0
       0       0       0       0       0       0       0       0       0       0
       0       0       0       0       0       0       0       0       0       0
       0       0       0       0       0       0       0       0       0       0
       0       0       0       0       0       0       0       0       0       0
       0       0       0       0       0       0       0       0       0       0
       0       0       0       0       0       0       0       0       0       0
       0       0       0       0       0       0       0       0       0       0
       0       0       0       0       0       0       0       0       0       0
       0       0       0       0       0       0       0       0       0       0
       0       0
%FLAG RADIUS_SET                                                                
%FORMAT(1a80)                                                                   
modified Bondi radii (mbondi)                                                   
%FLAG RADII                                                                     
%FORMAT(5E16.8)                                                                 
  1.55000000E+00  1.30000000E+00  1.30000000E+00  1.30000000E+00  1.70000000E+00
  1.30000000E+00  1.70000000E+00  1.30000000E+00  1.30000000E+00  1.70000000E+00
  1.50000000E+00  1.50000000E+00  1.70000000E+00  1.50000000E+00  1.55000000E+00
  1.30000000E+00  1.70000000E+00  1.30000000E+00  1.70000000E+00  1.30000000E+00
  1.30000000E+00  1.30000000E+00  1.70000000E+00  1.50000000E+00  1.55000000E+00
  1.30000000E+00  1.70000000E+00  1.30000000E+00  1.70000000E+00  1.30000000E+00
  1.30000000E+00  1.70000000E+00  1.70000000E+00  1.30000000E+00  1.70000000E+00
  1.30000000E+00  1.70000000E+00  1.50000000E+00  8.00000000E-01  1.70000000E+00
  1.30000000E+00  1.70000000E+00  1.30000000E+00  1.70000000E+00  1.50000000E+00
  1.55000000E+00  1.30000000E+00  1.70000000E+00  1.30000000E+00  1.70000000E+00
  1.30000000E+00  1.30000000E+00  1.30000000E+00  1.70000000E+00  1.50000000E+00
  1.55000000E+00  1.30000000E+00  1.70000000E+00  1.30000000E+00  1.70000000E+00
  1.30000000E+00  1.30000000E+00  1.70000000E+00  1.30000000E+00  1.30000000E+00
  1.70000000E+00  1.50000000E+00  1.55000000E+00  1.30000000E+00  1.30000000E+00
  1.70000000E+00  1.50000000E+00  1.55000000E+00  1.30000000E+00  1.70000000E+00
  1.30000000E+00  1.70000000E+00  1.30000000E+00  1.30000000E+00  1.70000000E+00
  1.70000000E+00  1.30000000E+00  1.55000000E+00  1.30000000E+00  1.70000000E+00
  1.70000000E+00  1.30000000E+00  1.70000000E+00  1.30000000E+00  1.70000000E+00
  1.30000000E+00  1.70000000E+00  1.30000000E+00  1.70000000E+00  1.70000000E+00
  1.50000000E+00  1.55000000E+00  1.30000000E+00  1.70000000E+00  1.30000000E+00
  1.70000000E+00  1.30000000E+00  1.30000000E+00  1.70000000E+00  1.30000000E+00
  1.70000000E+00  1.30000000E+00  1.30000000E+00  1.30000000E+00  1.70000000E+00
  1.30000000E+00  1.30000000E+00  1.30000000E+00  1.70000000E+00  1.50000000E+00
  1.55000000E+00  1.30000000E+00  1.70000000E+00  1.30000000E+00  1.70000000E+00
  1.30000000E+00  1.30000000E+00  1.30000000E+00  1.70000000E+00  1.50000000E+00
  1.55000000E+00  1.30000000E+00  1.70000000E+00  1.30000000E+00  1.70000000E+00
  1.30000000E+00  1.30000000E+00  1.70000000E+00  1.50000000E+00  1.50000000E+00
  1.70000000E+00  1.50000000E+00  1.55000000E+00  1.30000000E+00  1.70000000E+00
  1.30000000E+00  1.30000000E+00  1.70000000E+00  1.50000000E+00  1.55000000E+00
  1.30000000E+00  1.70000000E+00  1.30000000E+00  1.30000000E+00  1.70000000E+00
  1.50000000E+00  1.55000000E+00  1.70000000E+00  1.30000000E+00  1.30000000E+00
  1.70000000E+00  1.30000000E+00  1.30000000E+00  1.70000000E+00  1.30000000E+00
  1.30000000E+00  1.70000000E+00  1.30000000E+00  1.70000000E+00  1.50000000E+00
  1.55000000E+00  1.30000000E+00  1.70000000E+00  1.30000000E+00  1.70000000E+00
  1.30000000E+00  1.30000000E+00  1.50000000E+00  8.00000000E-01  1.70000000E+00
  1.50000000E+00  1.55000000E+00  1.30000000E+00  1.70000000E+00  1.30000000E+00
  1.70000000E+00  1.30000000E+00  1.30000000E+00  1.50000000E+00  8.00000000E-01
  1.70000000E+00  1.50000000E+00  1.55000000E+00  1.30000000E+00  1.70000000E+00
  1.30000000E+00  1.30000000E+00  1.70000000E+00  1.50000000E+00  1.55000000E+00
  1.30000000E+00  1.70000000E+00  1.30000000E+00  1.70000000E+00  1.30000000E+00
  1.30000000E+00  1.70000000E+00  1.30000000E+00  1.30000000E+00  1.70000000E+00
  1.30000000E+00  1.30000000E+00  1.55000000E+00  1.30000000E+00  1.70000000E+00
  1.55000000E+00  1.30000000E+00  1.30000000E+00  1.55000000E+00  1.30000000E+00
  1.30000000E+00  1.70000000E+00  1.50000000E+00  1.55000000E+00  1.70000000E+00
  1.30000000E+00  1.30000000E+00  1.70000000E+00  1.30000000E+00  1.30000000E+00
  1.70000000E+00  1.30000000E+00  1.30000000E+00  1.70000000E+00  1.30000000E+00
  1.70000000E+00  1.50000000E+00  1.55000000E+00  1.70000000E+00  1.30000000E+00
  1.30000000E+00  1.70000000E+00  1.30000000E+00  1.30000000E+00  1.70000000E+00
  1.30000000E+00  1.30000000E+00  1.70000000E+00  1.30000000E+00  1.70000000E+00
  1.50000000E+00  1.55000000E+00  1.70000000E+00  1.30000000E+00  1.30000000E+00
  1.70000000E+00  1.30000000E+00  1.30000000E+00  1.70000000E+00  1.30000000E+00
  1.30000000E+00  1.70000000E+00  1.30000000E+00  1.70000000E+00  1.50000000E+00
  1.55000000E+00  1.30000000E+00  1.70000000E+00  1.30000000E+00  1.70000000E+00
  1.30000000E+00  1.30000000E+00  1.50000000E+00  8.00000000E-01  1.70000000E+00
  1.50000000E+00  1.50000000E+00
%FLAG SCREEN                                                                    
%FORMAT(5E16.8)                                                                 
  7.90000000E-01  8.50000000E-01  8.50000000E-01  8.50000000E-01  7.20000000E-01
  8.50000000E-01  7.20000000E-01  8.50000000E-01  8.50000000E-01  7.20000000E-01
  8.50000000E-01  8.50000000E-01  7.20000000E-01  8.50000000E-01  7.90000000E-01
  8.50000000E-01  7.20000000E-01  8.50000000E-01  7.20000000E-01  8.50000000E-01
  8.50000000E-01  8.50000000E-01  7.20000000E-01  8.50000000E-01  7.90000000E-01
  8.50000000E-01  7.20000000E-01  8.50000000E-01  7.20000000E-01  8.50000000E-01
  8.50000000E-01  7.20000000E-01  7.20000000E-01  8.50000000E-01  7.20000000E-01
  8.50000000E-01  7.20000000E-01  8.50000000E-01  8.50000000E-01  7.20000000E-01
  8.50000000E-01  7.20000000E-01  8.50000000E-01  7.20000000E-01  8.50000000E-01
  7.90000000E-01  8.50000000E-01  7.20000000E-01  8.50000000E-01  7.20000000E-01
  8.50000000E-01  8.50000000E-01  8.50000000E-01  7.20000000E-01  8.50000000E-01
  7.90000000E-01  8.50000000E-01  7.20000000E-01  8.50000000E-01  7.20000000E-01
  8.50000000E-01  8.50000000E-01  7.20000000E-01  8.50000000E-01  8.50000000E-01
  7.20000000E-01  8.50000000E-01  7.90000000E-01  8.50000000E-01  8.50000000E-01
  7.20000000E-01  8.50000000E-01  7.90000000E-01  8.50000000E-01  7.20000000E-01
  8.50000000E-01  7.20000000E-01  8.50000000E-01  8.50000000E-01  7.20000000E-01
  7.20000000E-01  8.50000000E-01  7.90000000E-01  8.50000000E-01  7.20000000E-01
  7.20000000E-01  8.50000000E-01  7.20000000E-01  8.50000000E-01  7.20000000E-01
  8.50000000E-01  7.20000000E-01  8.50000000E-01  7.20000000E-01  7.20000000E-01
  8.50000000E-01  7.90000000E-01  8.50000000E-01  7.20000000E-01  8.50000000E-01
  7.20000000E-01  8.50000000E-01  8.50000000E-01  7.20000000E-01  8.50000000E-01
  7.20000000E-01  8.50000000E-01  8.50000000E-01  8.50000000E-01  7.20000000E-01
  8.50000000E-01  8.50000000E-01  8.50000000E-01  7.20000000E-01  8.50000000E-01
  7.90000000E-01  8.50000000E-01  7.20000000E-01  8.50000000E-01  7.20000000E-01
  8.50000000E-01  8.50000000E-01  8.50000000E-01  7.20000000E-01  8.50000000E-01
  7.90000000E-01  8.50000000E-01  7.20000000E-01  8.50000000E-01  7.20000000E-01
  8.50000000E-01  8.50000000E-01  7.20000000E-01  8.50000000E-01  8.50000000E-01
  7.20000000E-01  8.50000000E-01  7.90000000E-01  8.50000000E-01  7.20000000E-01
  8.50000000E-01  8.50000000E-01  7.20000000E-01  8.50000000E-01  7.90000000E-01
  8.50000000E-01  7.20000000E-01  8.50000000E-01  8.50000000E-01  7.20000000E-01
  8.50000000E-01  7.90000000E-01  7.20000000E-01  8.50000000E-01  8.50000000E-01
  7.20000000E-01  8.50000000E-01  8.50000000E-01  7.20000000E-01  8.50000000E-01
  8.50000000E-01  7.20000000E-01  8.50000000E-01  7.20000000E-01  8.50000000E-01
  7.90000000E-01  8.50000000E-01  7.20000000E-01  8.50000000E-01  7.20000000E-01
  8.50000000E-01  8.50000000E-01  8.50000000E-01  8.50000000E-01  7.20000000E-01
  8.50000000E-01  7.90000000E-01  8.50000000E-01  7.20000000E-01  8.50000000E-01
  7.20000000E-01  8.50000000E-01  8.50000000E-01  8.50000000E-01  8.50000000E-01
  7.20000000E-01  8.50000000E-01  7.90000000E-01  8.50000000E-01  7.20000000E-01
  8.50000000E-01  8.50000000E-01  7.20000000E-01  8.50000000E-01  7.90000000E-01
  8.50000000E-01  7.20000000E-01  8.50000000E-01  7.20000000E-01  8.50000000E-01
  8.50000000E-01  7.20000000E-01  8.50000000E-01  8.50000000E-01  7.20000000E-01
  8.50000000E-01  8.50000000E-01  7.90000000E-01  8.50000000E-01  7.20000000E-01
  7.90000000E-01  8.50000000E-01  8.50000000E-01  7.90000000E-01  8.50000000E-01
  8.50000000E-01  7.20000000E-01  8.50000000E-01  7.90000000E-01  7.20000000E-01
  8.50000000E-01  8.50000000E-01  7.20000000E-01  8.50000000E-01  8.50000000E-01
  7.20000000E-01  8.50000000E-01  8.50000000E-01  7.20000000E-01  8.50000000E-01
  7.20000000E-01  8.50000000E-01  7.90000000E-01  7.20000000E-01  8.50000000E-01
  8.50000000E-01  7.20000000E-01  8.50000000E-01  8.50000000E-01  7.20000000E-01
  8.50000000E-01  8.50000000E-01  7.20000000E-01  8.50000000E-01  7.20000000E-01
  8.50000000E-01  7.90000000E-01  7.20000000E-01  8.50000000E-01  8.50000000E-01
  7.20000000E-01  8.50000000E-01  8.50000000E-01  7.20000000E-01  8.50000000E-01
  8.50000000E-01  7.20000000E-01  8.50000000E-01  7.20000000E-01  8.50000000E-01
  7.90000000E-01  8.50000000E-01  7.20000000E-01  8.50000000E-01  7.20000000E-01
  8.50000000E-01  8.50000000E-01  8.50000000E-01  8.50000000E-01  7.20000000E-01
  8.50000000E-01  8.50000000E-01
%FLAG IPOL                                                                      
%FORMAT(1I8)                                                                    
       0
